# vtk DataFile Version 2.0
This file was created by Fortran
ASCII
DATASET UNSTRUCTURED_GRID
POINTS  1138  DOUBLE
  -0.329000E+00   0.184400E+00  -0.328200E+00
  -0.426100E+00   0.182100E+00  -0.187800E+00
  -0.187800E+00   0.182100E+00  -0.426100E+00
  -0.326800E+00   0.328600E+00  -0.187600E+00
  -0.187600E+00   0.328600E+00  -0.326800E+00
  -0.404500E+00   0.000000E+00  -0.293900E+00
  -0.293900E+00   0.000000E+00  -0.404500E+00
  -0.475500E+00   0.000000E+00  -0.154500E+00
  -0.154500E+00   0.000000E+00  -0.475500E+00
  -0.182200E+00   0.428500E+00  -0.182200E+00
  -0.404500E+00   0.293900E+00   0.000000E+00
   0.000000E+00   0.293900E+00  -0.404500E+00
  -0.475500E+00   0.154500E+00   0.000000E+00
   0.000000E+00   0.154500E+00  -0.475500E+00
  -0.328600E+00  -0.184500E+00  -0.328600E+00
  -0.293900E+00   0.404500E+00   0.000000E+00
   0.000000E+00   0.404500E+00  -0.293900E+00
  -0.426100E+00  -0.182100E+00  -0.187700E+00
  -0.187700E+00  -0.182100E+00  -0.426100E+00
  -0.500000E+00   0.000000E+00   0.000000E+00
   0.000000E+00   0.000000E+00  -0.500000E+00
  -0.154500E+00   0.475500E+00   0.000000E+00
   0.000000E+00   0.475500E+00  -0.154500E+00
  -0.475500E+00  -0.154500E+00   0.000000E+00
   0.000000E+00  -0.154500E+00  -0.475500E+00
  -0.426100E+00   0.182100E+00   0.187800E+00
   0.187800E+00   0.182100E+00  -0.426100E+00
  -0.326800E+00  -0.328600E+00  -0.187600E+00
  -0.187600E+00  -0.328600E+00  -0.326800E+00
  -0.326800E+00   0.328600E+00   0.187600E+00
   0.187600E+00   0.328600E+00  -0.326800E+00
  -0.475500E+00   0.000000E+00   0.154500E+00
   0.154500E+00   0.000000E+00  -0.475500E+00
   0.000000E+00   0.500000E+00   0.000000E+00
  -0.182200E+00   0.428500E+00   0.182200E+00
  -0.404500E+00  -0.293900E+00   0.000000E+00
   0.182200E+00   0.428500E+00  -0.182200E+00
   0.000000E+00  -0.293900E+00  -0.404500E+00
  -0.426100E+00  -0.182100E+00   0.187700E+00
   0.187700E+00  -0.182100E+00  -0.426100E+00
  -0.182200E+00  -0.428500E+00  -0.182200E+00
   0.000000E+00   0.475500E+00   0.154500E+00
   0.154500E+00   0.475500E+00   0.000000E+00
  -0.404500E+00   0.000000E+00   0.293900E+00
   0.293900E+00   0.000000E+00  -0.404500E+00
  -0.328200E+00   0.184400E+00   0.329000E+00
   0.329000E+00   0.184400E+00  -0.328200E+00
  -0.293900E+00  -0.404500E+00   0.000000E+00
   0.000000E+00  -0.404500E+00  -0.293900E+00
  -0.187600E+00   0.328600E+00   0.326800E+00
   0.326800E+00   0.328600E+00  -0.187600E+00
  -0.326800E+00  -0.328600E+00   0.187600E+00
   0.187600E+00  -0.328600E+00  -0.326800E+00
   0.000000E+00   0.404500E+00   0.293900E+00
   0.293900E+00   0.404500E+00   0.000000E+00
  -0.328600E+00  -0.184500E+00   0.328600E+00
   0.328600E+00  -0.184500E+00  -0.328600E+00
  -0.293900E+00   0.000000E+00   0.404500E+00
   0.404500E+00   0.000000E+00  -0.293900E+00
  -0.154500E+00  -0.475500E+00   0.000000E+00
   0.000000E+00  -0.475500E+00  -0.154500E+00
   0.182200E+00   0.428500E+00   0.182200E+00
  -0.187800E+00   0.182100E+00   0.426100E+00
   0.426100E+00   0.182100E+00  -0.187800E+00
   0.000000E+00   0.293900E+00   0.404500E+00
  -0.182200E+00  -0.428500E+00   0.182200E+00
   0.404500E+00   0.293900E+00   0.000000E+00
   0.182200E+00  -0.428500E+00  -0.182200E+00
   0.000000E+00  -0.500000E+00   0.000000E+00
  -0.154500E+00   0.000000E+00   0.475500E+00
   0.475500E+00   0.000000E+00  -0.154500E+00
  -0.187600E+00  -0.328600E+00   0.326800E+00
   0.326800E+00  -0.328600E+00  -0.187600E+00
   0.187600E+00   0.328600E+00   0.326800E+00
   0.326800E+00   0.328600E+00   0.187600E+00
  -0.187700E+00  -0.182100E+00   0.426100E+00
   0.426100E+00  -0.182100E+00  -0.187700E+00
   0.000000E+00   0.154500E+00   0.475500E+00
   0.475500E+00   0.154500E+00   0.000000E+00
   0.000000E+00  -0.475500E+00   0.154500E+00
   0.154500E+00  -0.475500E+00   0.000000E+00
   0.000000E+00   0.000000E+00   0.500000E+00
   0.500000E+00   0.000000E+00   0.000000E+00
   0.187800E+00   0.182100E+00   0.426100E+00
   0.426100E+00   0.182100E+00   0.187800E+00
   0.000000E+00  -0.404500E+00   0.293900E+00
   0.293900E+00  -0.404500E+00   0.000000E+00
   0.329000E+00   0.184400E+00   0.328200E+00
   0.000000E+00  -0.154500E+00   0.475500E+00
   0.475500E+00  -0.154500E+00   0.000000E+00
   0.000000E+00  -0.293900E+00   0.404500E+00
   0.404500E+00  -0.293900E+00   0.000000E+00
   0.182200E+00  -0.428500E+00   0.182200E+00
   0.154500E+00   0.000000E+00   0.475500E+00
   0.475500E+00   0.000000E+00   0.154500E+00
   0.293900E+00   0.000000E+00   0.404500E+00
   0.404500E+00   0.000000E+00   0.293900E+00
   0.187600E+00  -0.328600E+00   0.326800E+00
   0.326800E+00  -0.328600E+00   0.187600E+00
   0.187700E+00  -0.182100E+00   0.426100E+00
   0.426100E+00  -0.182100E+00   0.187700E+00
   0.328600E+00  -0.184500E+00   0.328600E+00
  -0.409917E+00   0.182483E+00  -0.211200E+00
  -0.377550E+00   0.183250E+00  -0.258000E+00
  -0.345183E+00   0.184017E+00  -0.304800E+00
  -0.395063E+00   0.230500E-01  -0.298187E+00
  -0.376188E+00   0.691500E-01  -0.306762E+00
  -0.357313E+00   0.115250E+00  -0.315337E+00
  -0.338438E+00   0.161350E+00  -0.323912E+00
  -0.298287E+00   0.230500E-01  -0.394962E+00
  -0.307063E+00   0.691500E-01  -0.375887E+00
  -0.315837E+00   0.115250E+00  -0.356812E+00
  -0.324612E+00   0.161350E+00  -0.337737E+00
  -0.211333E+00   0.182483E+00  -0.409783E+00
  -0.258400E+00   0.183250E+00  -0.377150E+00
  -0.305467E+00   0.184017E+00  -0.344517E+00
  -0.327075E+00   0.310575E+00  -0.205175E+00
  -0.327625E+00   0.274525E+00  -0.240325E+00
  -0.328175E+00   0.238475E+00  -0.275475E+00
  -0.328725E+00   0.202425E+00  -0.310625E+00
  -0.205275E+00   0.310575E+00  -0.326975E+00
  -0.240625E+00   0.274525E+00  -0.327325E+00
  -0.275975E+00   0.238475E+00  -0.327675E+00
  -0.311325E+00   0.202425E+00  -0.328025E+00
  -0.467267E+00   0.159100E+00  -0.313000E-01
  -0.450800E+00   0.168300E+00  -0.939000E-01
  -0.434333E+00   0.177500E+00  -0.156500E+00
  -0.467267E+00   0.303500E-01  -0.160050E+00
  -0.450800E+00   0.910500E-01  -0.171150E+00
  -0.434333E+00   0.151750E+00  -0.182250E+00
  -0.407200E+00   0.227625E-01  -0.280637E+00
  -0.412600E+00   0.682875E-01  -0.254112E+00
  -0.418000E+00   0.113813E+00  -0.227587E+00
  -0.423400E+00   0.159337E+00  -0.201062E+00
  -0.343350E+00   0.304183E+00  -0.187633E+00
  -0.376450E+00   0.255350E+00  -0.187700E+00
  -0.409550E+00   0.206517E+00  -0.187767E+00
  -0.407200E+00   0.279925E+00  -0.234750E-01
  -0.412600E+00   0.251975E+00  -0.704250E-01
  -0.418000E+00   0.224025E+00  -0.117375E+00
  -0.423400E+00   0.196075E+00  -0.164325E+00
  -0.280637E+00   0.227625E-01  -0.407200E+00
  -0.254112E+00   0.682875E-01  -0.412600E+00
  -0.227587E+00   0.113813E+00  -0.418000E+00
  -0.201062E+00   0.159337E+00  -0.423400E+00
  -0.160050E+00   0.303500E-01  -0.467267E+00
  -0.171150E+00   0.910500E-01  -0.450800E+00
  -0.182250E+00   0.151750E+00  -0.434333E+00
  -0.187633E+00   0.304183E+00  -0.343350E+00
  -0.187700E+00   0.255350E+00  -0.376450E+00
  -0.187767E+00   0.206517E+00  -0.409550E+00
  -0.234750E-01   0.279925E+00  -0.407200E+00
  -0.704250E-01   0.251975E+00  -0.412600E+00
  -0.117375E+00   0.224025E+00  -0.418000E+00
  -0.164325E+00   0.196075E+00  -0.423400E+00
  -0.313000E-01   0.159100E+00  -0.467267E+00
  -0.939000E-01   0.168300E+00  -0.450800E+00
  -0.156500E+00   0.177500E+00  -0.434333E+00
  -0.394788E+00   0.298237E+00  -0.234500E-01
  -0.375362E+00   0.306912E+00  -0.703500E-01
  -0.355938E+00   0.315588E+00  -0.117250E+00
  -0.336512E+00   0.324263E+00  -0.164150E+00
  -0.210800E+00   0.328600E+00  -0.303600E+00
  -0.257200E+00   0.328600E+00  -0.257200E+00
  -0.303600E+00   0.328600E+00  -0.210800E+00
  -0.206300E+00   0.411850E+00  -0.183100E+00
  -0.254500E+00   0.378550E+00  -0.184900E+00
  -0.302700E+00   0.345250E+00  -0.186700E+00
  -0.298013E+00   0.395013E+00  -0.234500E-01
  -0.306237E+00   0.376038E+00  -0.703500E-01
  -0.314462E+00   0.357063E+00  -0.117250E+00
  -0.322688E+00   0.338088E+00  -0.164150E+00
  -0.183100E+00   0.411850E+00  -0.206300E+00
  -0.184900E+00   0.378550E+00  -0.254500E+00
  -0.186700E+00   0.345250E+00  -0.302700E+00
  -0.234500E-01   0.298237E+00  -0.394788E+00
  -0.703500E-01   0.306912E+00  -0.375362E+00
  -0.117250E+00   0.315588E+00  -0.355938E+00
  -0.164150E+00   0.324263E+00  -0.336512E+00
  -0.234500E-01   0.395013E+00  -0.298013E+00
  -0.703500E-01   0.376038E+00  -0.306237E+00
  -0.117250E+00   0.357063E+00  -0.314462E+00
  -0.164150E+00   0.338088E+00  -0.322688E+00
  -0.312333E+00   0.000000E+00  -0.386067E+00
  -0.349200E+00   0.000000E+00  -0.349200E+00
  -0.386067E+00   0.000000E+00  -0.312333E+00
  -0.423400E+00  -0.159338E+00  -0.200975E+00
  -0.418000E+00  -0.113813E+00  -0.227525E+00
  -0.412600E+00  -0.682875E-01  -0.254075E+00
  -0.407200E+00  -0.227625E-01  -0.280625E+00
  -0.463667E+00   0.000000E+00  -0.177733E+00
  -0.440000E+00   0.000000E+00  -0.224200E+00
  -0.416333E+00   0.000000E+00  -0.270667E+00
  -0.338087E+00  -0.161438E+00  -0.324263E+00
  -0.357063E+00  -0.115313E+00  -0.315588E+00
  -0.376038E+00  -0.691875E-01  -0.306913E+00
  -0.395012E+00  -0.230625E-01  -0.298237E+00
  -0.177733E+00   0.000000E+00  -0.463667E+00
  -0.224200E+00   0.000000E+00  -0.440000E+00
  -0.270667E+00   0.000000E+00  -0.416333E+00
  -0.324263E+00  -0.161438E+00  -0.338087E+00
  -0.315588E+00  -0.115313E+00  -0.357063E+00
  -0.306913E+00  -0.691875E-01  -0.376038E+00
  -0.298237E+00  -0.230625E-01  -0.395012E+00
  -0.200975E+00  -0.159338E+00  -0.423400E+00
  -0.227525E+00  -0.113813E+00  -0.418000E+00
  -0.254075E+00  -0.682875E-01  -0.412600E+00
  -0.280625E+00  -0.227625E-01  -0.407200E+00
  -0.475500E+00  -0.135187E+00  -0.193125E-01
  -0.475500E+00  -0.965625E-01  -0.579375E-01
[...]
POINT_DATA  1138
SCALARS  vx_strength  double
LOOKUP_TABLE default
   0.000000E+00
   0.000000E+00
   0.000000E+00
   0.000000E+00
   0.000000E+00
   0.000000E+00
   0.000000E+00
   0.000000E+00
   0.000000E+00
   0.000000E+00
   0.000000E+00
   0.000000E+00
   0.000000E+00
   0.000000E+00
   0.000000E+00
   0.000000E+00
   0.000000E+00
   0.000000E+00
   0.000000E+00
   0.000000E+00
   0.000000E+00
   0.000000E+00
   0.000000E+00
   0.000000E+00
   0.000000E+00
   0.000000E+00
   0.000000E+00
   0.000000E+00
   0.000000E+00
   0.000000E+00
   0.000000E+00
   0.000000E+00
   0.000000E+00
   0.000000E+00
   0.000000E+00
   0.000000E+00
   0.000000E+00
   0.000000E+00
   0.000000E+00
   0.000000E+00
   0.000000E+00
   0.000000E+00
   0.000000E+00
   0.000000E+00
   0.000000E+00
   0.000000E+00
   0.000000E+00
   0.000000E+00
   0.000000E+00
   0.000000E+00
   0.000000E+00
   0.000000E+00
   0.000000E+00
   0.000000E+00
   0.000000E+00
   0.000000E+00
   0.000000E+00
   0.000000E+00
   0.000000E+00
   0.000000E+00
   0.000000E+00
   0.000000E+00
   0.000000E+00
   0.000000E+00
   0.000000E+00
   0.000000E+00
   0.000000E+00
   0.000000E+00
   0.000000E+00
   0.000000E+00
   0.000000E+00
   0.000000E+00
   0.000000E+00
   0.000000E+00
   0.000000E+00
   0.000000E+00
   0.000000E+00
   0.000000E+00
   0.000000E+00
   0.000000E+00
   0.000000E+00
   0.000000E+00
   0.000000E+00
   0.000000E+00
   0.000000E+00
   0.000000E+00
   0.000000E+00
   0.000000E+00
   0.000000E+00
   0.000000E+00
   0.000000E+00
   0.000000E+00
   0.000000E+00
   0.000000E+00
   0.000000E+00
   0.000000E+00
   0.000000E+00
   0.000000E+00
   0.000000E+00
   0.000000E+00
   0.000000E+00
   0.000000E+00
   0.108922E-02
   0.108922E-02
   0.108922E-02
   0.131691E-02
   0.131691E-02
   0.131691E-02
   0.131691E-02
   0.241132E-02
   0.241132E-02
   0.241132E-02
   0.241132E-02
   0.526863E-03
   0.526863E-03
   0.526863E-03
   0.228698E-02
   0.228698E-02
   0.228698E-02
   0.228698E-02
   0.923672E-03
   0.923672E-03
   0.923672E-03
   0.923672E-03
   0.128988E-02
   0.128988E-02
   0.128988E-02
   0.128382E-02
   0.128382E-02
   0.128382E-02
   0.147536E-02
   0.147536E-02
   0.147536E-02
   0.147536E-02
   0.122455E-02
   0.122455E-02
   0.122455E-02
   0.146113E-02
   0.146113E-02
   0.146113E-02
   0.146113E-02
   0.121476E-02
   0.121476E-02
   0.121476E-02
   0.121476E-02
   0.464997E-02
   0.464997E-02
   0.464997E-02
   0.466393E-02
   0.466393E-02
   0.466393E-02
   0.295512E-03
   0.295512E-03
   0.295512E-03
   0.295512E-03
   0.137676E-03
   0.137676E-03
   0.137676E-03
   0.147975E-02
   0.147975E-02
   0.147975E-02
   0.147975E-02
   0.144734E-02
   0.144734E-02
   0.144734E-02
   0.605676E-03
   0.605676E-03
   0.605676E-03
   0.252009E-02
   0.252009E-02
   0.252009E-02
   0.252009E-02
   0.446623E-02
   0.446623E-02
   0.446623E-02
   0.449353E-03
   0.449353E-03
   0.449353E-03
   0.449353E-03
   0.400838E-03
   0.400838E-03
   0.400838E-03
   0.400838E-03
   0.314309E-04
   0.314309E-04
   0.314309E-04
   0.139265E-02
   0.139265E-02
   0.139265E-02
   0.139265E-02
   0.340151E-04
   0.340151E-04
   0.340151E-04
   0.146183E-02
   0.146183E-02
   0.146183E-02
   0.146183E-02
   0.646843E-05
   0.646843E-05
   0.646843E-05
   0.238373E-02
   0.238373E-02
   0.238373E-02
   0.238373E-02
   0.121696E-02
   0.121696E-02
   0.121696E-02
   0.121696E-02
   0.624580E-03
   0.624580E-03
   0.624580E-03
   0.624580E-03
   0.651686E-03
   0.651686E-03
   0.651686E-03
   0.651686E-03
   0.127597E-02
   0.127597E-02
   0.127597E-02
   0.182317E-05
   0.182317E-05
   0.182317E-05
   0.179085E-04
   0.179085E-04
   0.179085E-04
   0.458252E-02
   0.458252E-02
   0.458252E-02
   0.906827E-04
   0.906827E-04
   0.906827E-04
   0.906827E-04
   0.122483E-03
   0.122483E-03
   0.122483E-03
   0.122483E-03
   0.113924E-02
   0.113924E-02
   0.113924E-02
   0.113924E-02
   0.194310E-03
   0.194310E-03
   0.194310E-03
   0.194310E-03
   0.477323E-02
   0.477323E-02
   0.477323E-02
   0.401459E-03
   0.401459E-03
   0.401459E-03
   0.630468E-06
   0.630468E-06
   0.630468E-06
   0.150696E-02
   0.150696E-02
   0.150696E-02
   0.150696E-02
   0.144929E-02
   0.144929E-02
   0.144929E-02
   0.144929E-02
   0.156755E-04
   0.156755E-04
   0.156755E-04
   0.422561E-02
   0.422561E-02
   0.422561E-02
   0.462305E-02
   0.462305E-02
   0.462305E-02
   0.449683E-03
   0.449683E-03
   0.449683E-03
   0.449683E-03
   0.202187E-03
   0.202187E-03
   0.202187E-03
   0.202187E-03
   0.130425E-02
   0.130425E-02
   0.130425E-02
   0.627690E-03
   0.627690E-03
   0.627690E-03
   0.627690E-03
   0.422745E-05
   0.422745E-05
   0.422745E-05
   0.420127E-02
   0.420127E-02
   0.420127E-02
   0.925923E-03
   0.925923E-03
   0.925923E-03
   0.537735E-03
   0.537735E-03
   0.537735E-03
   0.537735E-03
   0.114425E-02
   0.114425E-02
   0.114425E-02
   0.232885E-02
   0.232885E-02
   0.232885E-02
   0.232885E-02
   0.447749E-03
   0.447749E-03
   0.447749E-03
   0.885373E-03
   0.885373E-03
   0.885373E-03
   0.885373E-03
   0.346321E-05
   0.346321E-05
   0.346321E-05
   0.116322E-02
   0.116322E-02
   0.116322E-02
   0.116322E-02
   0.250002E-02
   0.250002E-02
   0.250002E-02
   0.250002E-02
   0.463539E-02
   0.463539E-02
   0.463539E-02
   0.264471E-03
   0.264471E-03
   0.264471E-03
   0.264471E-03
   0.472990E-03
   0.472990E-03
   0.472990E-03
   0.472990E-03
   0.129085E-02
   0.129085E-02
   0.129085E-02
   0.146489E-02
   0.146489E-02
   0.146489E-02
   0.146489E-02
   0.117144E-02
   0.117144E-02
   0.117144E-02
   0.467468E-02
   0.467468E-02
   0.467468E-02
   0.167088E-03
   0.167088E-03
   0.167088E-03
   0.279635E-03
   0.279635E-03
   0.279635E-03
   0.279635E-03
   0.109244E-04
   0.109244E-04
   0.109244E-04
   0.852008E-05
   0.852008E-05
   0.852008E-05
   0.841487E-05
   0.841487E-05
   0.841487E-05
   0.421076E-02
   0.421076E-02
   0.421076E-02
   0.105295E-04
   0.105295E-04
   0.105295E-04
   0.125160E-03
   0.125160E-03
   0.125160E-03
   0.125160E-03
   0.475176E-02
   0.475176E-02
   0.475176E-02
   0.128999E-03
   0.128999E-03
   0.128999E-03
   0.128999E-03
   0.428286E-02
   0.428286E-02
   0.428286E-02
   0.103488E-02
   0.103488E-02
   0.103488E-02
   0.739556E-03
   0.739556E-03
   0.739556E-03
   0.739556E-03
   0.625758E-03
   0.625758E-03
   0.625758E-03
   0.625758E-03
   0.130375E-02
   0.130375E-02
   0.130375E-02
   0.496721E-06
   0.496721E-06
   0.496721E-06
   0.575344E-03
   0.575344E-03
   0.575344E-03
   0.575344E-03
   0.463123E-02
   0.463123E-02
   0.463123E-02
   0.901288E-03
   0.901288E-03
   0.901288E-03
   0.115691E-02
   0.115691E-02
   0.115691E-02
   0.141476E-02
   0.141476E-02
   0.141476E-02
   0.141476E-02
   0.123976E-02
   0.123976E-02
   0.123976E-02
   0.117851E-02
   0.117851E-02
   0.117851E-02
   0.381459E-02
   0.381459E-02
   0.381459E-02
   0.351472E-02
   0.351472E-02
   0.351472E-02
   0.240668E-03
   0.240668E-03
   0.240668E-03
   0.240668E-03
   0.633256E-03
   0.633256E-03
   0.633256E-03
   0.149024E-02
   0.149024E-02
   0.149024E-02
   0.149024E-02
   0.252325E-02
   0.252325E-02
   0.252325E-02
   0.252325E-02
   0.146266E-02
   0.146266E-02
   0.146266E-02
   0.597046E-03
   0.597046E-03
   0.597046E-03
   0.446718E-02
   0.446718E-02
   0.446718E-02
   0.462636E-03
   0.462636E-03
   0.462636E-03
   0.462636E-03
   0.373276E-03
   0.373276E-03
   0.373276E-03
   0.373276E-03
   0.144961E-02
   0.144961E-02
   0.144961E-02
   0.232747E-02
   0.232747E-02
   0.232747E-02
   0.232747E-02
   0.593670E-03
   0.593670E-03
   0.593670E-03
   0.375629E-02
   0.375629E-02
   0.375629E-02
   0.407338E-03
   0.407338E-03
   0.407338E-03
   0.407338E-03
   0.410834E-03
   0.410834E-03
   0.410834E-03
   0.125624E-02
   0.125624E-02
   0.125624E-02
   0.318219E-05
   0.318219E-05
   0.318219E-05
   0.172054E-04
   0.172054E-04
   0.172054E-04
   0.354760E-02
   0.354760E-02
   0.354760E-02
   0.195888E-05
   0.195888E-05
   0.195888E-05
   0.429143E-02
   0.429143E-02
   0.429143E-02
   0.192586E-03
   0.192586E-03
   0.192586E-03
   0.192586E-03
   0.447402E-02
   0.447402E-02
   0.447402E-02
   0.414855E-03
   0.414855E-03
   0.414855E-03
   0.144966E-02
   0.144966E-02
   0.144966E-02
   0.144966E-02
   0.150646E-02
   0.150646E-02
   0.150646E-02
   0.150646E-02
   0.245200E-05
   0.245200E-05
   0.245200E-05
   0.360595E-02
   0.360595E-02
   0.360595E-02
   0.679396E-03
   0.679396E-03
   0.679396E-03
   0.169019E-03
   0.169019E-03
   0.169019E-03
   0.169019E-03
   0.445783E-03
   0.445783E-03
   0.445783E-03
   0.445783E-03
   0.421515E-02
   0.421515E-02
   0.421515E-02
   0.208355E-03
   0.208355E-03
   0.208355E-03
   0.208355E-03
   0.139253E-02
   0.139253E-02
   0.139253E-02
   0.139253E-02
   0.115216E-02
   0.115216E-02
   0.115216E-02
   0.116597E-02
   0.116597E-02
   0.116597E-02
   0.213800E-03
   0.213800E-03
   0.213800E-03
   0.213800E-03
   0.382038E-02
   0.382038E-02
   0.382038E-02
   0.619201E-03
   0.619201E-03
   0.619201E-03
   0.113912E-02
   0.113912E-02
   0.113912E-02
   0.113912E-02
   0.477651E-02
   0.477651E-02
   0.477651E-02
   0.197830E-03
   0.197830E-03
   0.197830E-03
   0.197830E-03
   0.408748E-03
   0.408748E-03
   0.408748E-03
   0.759292E-03
   0.759292E-03
   0.759292E-03
   0.759292E-03
   0.463947E-02
   0.463947E-02
   0.463947E-02
   0.103448E-02
   0.103448E-02
   0.103448E-02
   0.121760E-05
   0.121760E-05
   0.121760E-05
   0.362976E-02
   0.362976E-02
   0.362976E-02
   0.148087E-02
   0.148087E-02
   0.148087E-02
   0.148087E-02
   0.146274E-02
   0.146274E-02
   0.146274E-02
   0.146274E-02
   0.599019E-06
   0.599019E-06
   0.599019E-06
   0.279645E-05
   0.279645E-05
   0.279645E-05
   0.112961E-02
   0.112961E-02
   0.112961E-02
   0.112961E-02
   0.116861E-02
   0.116861E-02
   0.116861E-02
   0.116861E-02
   0.440973E-03
   0.440973E-03
   0.440973E-03
   0.238640E-02
   0.238640E-02
   0.238640E-02
   0.238640E-02
   0.883272E-03
   0.883272E-03
   0.883272E-03
   0.883272E-03
   0.130544E-02
   0.130544E-02
   0.130544E-02
   0.130544E-02
   0.747681E-03
   0.747681E-03
   0.747681E-03
   0.747681E-03
   0.465340E-03
   0.465340E-03
   0.465340E-03
   0.250212E-02
   0.250212E-02
   0.250212E-02
   0.250212E-02
   0.116366E-02
   0.116366E-02
   0.116366E-02
   0.116366E-02
   0.476515E-05
   0.476515E-05
   0.476515E-05
   0.232339E-03
   0.232339E-03
   0.232339E-03
   0.232339E-03
   0.462929E-02
   0.462929E-02
   0.462929E-02
   0.476219E-03
   0.476219E-03
   0.476219E-03
   0.476219E-03
   0.463054E-03
   0.463054E-03
   0.463054E-03
   0.463054E-03
   0.468034E-02
   0.468034E-02
   0.468034E-02
   0.381597E-03
   0.381597E-03
   0.381597E-03
   0.381597E-03
   0.125366E-02
   0.125366E-02
   0.125366E-02
   0.125366E-02
   0.439237E-03
   0.439237E-03
   0.439237E-03
   0.733536E-03
   0.733536E-03
   0.733536E-03
   0.733536E-03
   0.232948E-02
   0.232948E-02
   0.232948E-02
   0.232948E-02
   0.145302E-02
   0.145302E-02
   0.145302E-02
   0.589432E-03
   0.589432E-03
   0.589432E-03
   0.376106E-03
   0.376106E-03
   0.376106E-03
   0.376106E-03
   0.376458E-02
   0.376458E-02
   0.376458E-02
   0.422904E-03
   0.422904E-03
   0.422904E-03
   0.480233E-03
   0.480233E-03
   0.480233E-03
   0.480233E-03
   0.421694E-02
   0.421694E-02
   0.421694E-02
   0.241243E-03
   0.241243E-03
   0.241243E-03
   0.241243E-03
   0.389144E-05
   0.389144E-05
   0.389144E-05
   0.126857E-02
   0.126857E-02
   0.126857E-02
   0.126857E-02
   0.150629E-03
   0.150629E-03
   0.150629E-03
   0.150629E-03
   0.236516E-02
   0.236516E-02
   0.236516E-02
   0.236516E-02
   0.433975E-03
   0.433975E-03
   0.433975E-03
   0.866081E-03
   0.866081E-03
   0.866081E-03
   0.866081E-03
   0.731033E-03
   0.731033E-03
   0.731033E-03
   0.731033E-03
   0.131215E-02
   0.131215E-02
   0.131215E-02
   0.131215E-02
   0.463432E-03
   0.463432E-03
   0.463432E-03
   0.124083E-02
   0.124083E-02
   0.124083E-02
   0.124083E-02
   0.121791E-02
   0.121791E-02
   0.121791E-02
   0.121791E-02
   0.276588E-05
   0.276588E-05
   0.276588E-05
   0.137770E-06
   0.137770E-06
   0.137770E-06
   0.289243E-03
   0.289243E-03
   0.289243E-03
   0.289243E-03
   0.310910E-03
   0.310910E-03
   0.310910E-03
   0.310910E-03
   0.475091E-02
   0.475091E-02
   0.475091E-02
   0.124398E-03
   0.124398E-03
   0.124398E-03
   0.124398E-03
   0.131895E-03
   0.131895E-03
   0.131895E-03
   0.131895E-03
   0.913534E-05
   0.913534E-05
   0.913534E-05
   0.102279E-02
   0.102279E-02
   0.102279E-02
   0.428261E-02
   0.428261E-02
   0.428261E-02
   0.738646E-03
   0.738646E-03
   0.738646E-03
   0.738646E-03
   0.375870E-02
   0.375870E-02
   0.375870E-02
   0.671574E-03
   0.671574E-03
   0.671574E-03
   0.147184E-03
   0.147184E-03
   0.147184E-03
   0.457399E-02
   0.457399E-02
   0.457399E-02
   0.289767E-03
   0.289767E-03
   0.289767E-03
   0.289767E-03
   0.311394E-03
   0.311394E-03
   0.311394E-03
   0.311394E-03
   0.444128E-03
   0.444128E-03
   0.444128E-03
   0.488746E-03
   0.488746E-03
   0.488746E-03
   0.204525E-03
   0.204525E-03
   0.204525E-03
   0.204525E-03
   0.462403E-02
   0.462403E-02
   0.462403E-02
   0.441979E-03
   0.441979E-03
   0.441979E-03
   0.441979E-03
   0.447140E-02
   0.447140E-02
   0.447140E-02
   0.194669E-03
   0.194669E-03
   0.194669E-03
   0.194669E-03
   0.419488E-03
   0.419488E-03
   0.419488E-03
   0.268147E-05
   0.268147E-05
   0.268147E-05
   0.326960E-03
   0.326960E-03
   0.326960E-03
   0.326960E-03
   0.720131E-03
   0.720131E-03
   0.720131E-03
   0.720131E-03
   0.673985E-03
   0.673985E-03
   0.673985E-03
   0.360605E-02
   0.360605E-02
   0.360605E-02
   0.168011E-03
   0.168011E-03
   0.168011E-03
   0.168011E-03
   0.428883E-02
   0.428883E-02
   0.428883E-02
   0.291546E-05
   0.291546E-05
   0.291546E-05
   0.141880E-03
   0.141880E-03
   0.141880E-03
   0.141880E-03
   0.453324E-02
   0.453324E-02
   0.453324E-02
   0.130351E-03
   0.130351E-03
   0.130351E-03
   0.130351E-03
   0.246911E-04
   0.246911E-04
   0.246911E-04
   0.124125E-04
   0.124125E-04
   0.124125E-04
   0.428890E-03
   0.428890E-03
   0.428890E-03
   0.104797E-04
   0.104797E-04
   0.104797E-04
   0.104797E-04
   0.106276E-04
   0.106276E-04
   0.106276E-04
   0.106276E-04
   0.466672E-02
   0.466672E-02
   0.466672E-02
   0.468675E-03
   0.468675E-03
   0.468675E-03
   0.468675E-03
   0.356591E-03
   0.356591E-03
   0.356591E-03
   0.356591E-03
   0.445982E-03
   0.445982E-03
   0.445982E-03
   0.125274E-02
   0.125274E-02
   0.125274E-02
   0.125274E-02
   0.731628E-03
   0.731628E-03
   0.731628E-03
   0.731628E-03
   0.381582E-02
   0.381582E-02
   0.381582E-02
   0.415936E-03
   0.415936E-03
   0.415936E-03
   0.385074E-03
   0.385074E-03
   0.385074E-03
   0.385074E-03
   0.130937E-02
   0.130937E-02
   0.130937E-02
   0.130937E-02
   0.448893E-03
   0.448893E-03
   0.448893E-03
   0.182467E-03
   0.182467E-03
   0.182467E-03
   0.269725E-03
   0.269725E-03
   0.269725E-03
   0.269725E-03
   0.489159E-03
   0.489159E-03
   0.489159E-03
   0.310256E-03
   0.310256E-03
   0.310256E-03
   0.310256E-03
   0.420045E-02
   0.420045E-02
   0.420045E-02
   0.901743E-03
   0.901743E-03
   0.901743E-03
   0.563267E-03
   0.563267E-03
   0.563267E-03
   0.563267E-03
   0.167691E-04
   0.167691E-04
   0.167691E-04
   0.946643E-05
   0.946643E-05
   0.946643E-05
   0.946643E-05
   0.469869E-03
   0.469869E-03
   0.469869E-03
   0.463386E-02
   0.463386E-02
   0.463386E-02
   0.102206E-02
   0.102206E-02
   0.102206E-02
   0.756498E-03
   0.756498E-03
   0.756498E-03
   0.756498E-03
   0.362887E-02
   0.362887E-02
   0.362887E-02
   0.119111E-05
   0.119111E-05
   0.119111E-05
   0.422390E-02
   0.422390E-02
   0.422390E-02
   0.123384E-05
   0.123384E-05
   0.123384E-05
   0.570519E-05
   0.570519E-05
   0.570519E-05
   0.134855E-05
   0.134855E-05
   0.134855E-05
   0.354112E-02
   0.354112E-02
   0.354112E-02
   0.621775E-03
   0.621775E-03
   0.621775E-03
   0.218346E-03
   0.218346E-03
   0.218346E-03
   0.218346E-03
   0.298366E-03
   0.298366E-03
   0.298366E-03
   0.298366E-03
   0.459484E-03
   0.459484E-03
   0.459484E-03
   0.449820E-03
   0.449820E-03
   0.449820E-03
   0.420186E-02
   0.420186E-02
   0.420186E-02
   0.208565E-03
   0.208565E-03
   0.208565E-03
   0.208565E-03
   0.484046E-03
   0.484046E-03
   0.484046E-03
   0.484046E-03
   0.150103E-03
   0.150103E-03
   0.150103E-03
   0.150103E-03
   0.126659E-02
   0.126659E-02
   0.126659E-02
   0.126659E-02
   0.447730E-05
   0.447730E-05
   0.447730E-05
   0.115801E-02
   0.115801E-02
   0.115801E-02
   0.115801E-02
   0.730236E-03
   0.730236E-03
   0.730236E-03
   0.730236E-03
   0.612301E-03
   0.612301E-03
   0.612301E-03
   0.612301E-03
   0.462357E-02
   0.462357E-02
   0.462357E-02
   0.880841E-03
   0.880841E-03
   0.880841E-03
   0.187896E-04
   0.187896E-04
   0.187896E-04
   0.448852E-03
   0.448852E-03
   0.448852E-03
   0.367704E-04
   0.367704E-04
   0.367704E-04
   0.367704E-04
   0.439058E-03
   0.439058E-03
   0.439058E-03
   0.439058E-03
   0.211819E-03
   0.211819E-03
   0.211819E-03
   0.211819E-03
   0.707999E-03
   0.707999E-03
   0.707999E-03
   0.707999E-03
   0.320375E-03
   0.320375E-03
   0.320375E-03
   0.320375E-03
   0.376760E-02
   0.376760E-02
   0.376760E-02
   0.666237E-03
   0.666237E-03
   0.666237E-03
   0.153515E-04
   0.153515E-04
   0.153515E-04
   0.358083E-02
   0.358083E-02
   0.358083E-02
   0.620306E-04
   0.620306E-04
   0.620306E-04
   0.470037E-03
   0.470037E-03
   0.470037E-03
   0.411804E-04
   0.411804E-04
   0.411804E-04
   0.176861E-03
   0.176861E-03
   0.176861E-03
   0.176861E-03
   0.125186E-02
   0.125186E-02
   0.125186E-02
   0.125186E-02
   0.333937E-03
   0.333937E-03
   0.333937E-03
   0.333937E-03
   0.597223E-03
   0.597223E-03
   0.597223E-03
   0.597223E-03
   0.379776E-02
   0.379776E-02
   0.379776E-02
   0.343996E-03
   0.343996E-03
   0.343996E-03
   0.343996E-03
   0.444505E-03
   0.444505E-03
   0.444505E-03
   0.128319E-02
   0.128319E-02
   0.128319E-02
   0.128319E-02
   0.495964E-03
   0.495964E-03
   0.495964E-03
   0.596525E-03
   0.596525E-03
   0.596525E-03
   0.425494E-03
   0.425494E-03
   0.425494E-03

SCALARS  vx_core_radius  double
LOOKUP_TABLE default
   0.000000E+00
   0.000000E+00
   0.000000E+00
   0.000000E+00
   0.000000E+00
   0.000000E+00
   0.000000E+00
   0.000000E+00
   0.000000E+00
   0.000000E+00
   0.000000E+00
   0.000000E+00
   0.000000E+00
   0.000000E+00
   0.000000E+00
   0.000000E+00
   0.000000E+00
   0.000000E+00
   0.000000E+00
   0.000000E+00
   0.000000E+00
   0.000000E+00
   0.000000E+00
   0.000000E+00
   0.000000E+00
   0.000000E+00
   0.000000E+00
   0.000000E+00
   0.000000E+00
   0.000000E+00
   0.000000E+00