# vtk DataFile Version 2.0
This file was created by Fortran
ASCII
DATASET UNSTRUCTURED_GRID
POINTS  1138  DOUBLE
  -0.329000E+00   0.184400E+00  -0.328200E+00
  -0.426100E+00   0.182100E+00  -0.187800E+00
  -0.187800E+00   0.182100E+00  -0.426100E+00
  -0.326800E+00   0.328600E+00  -0.187600E+00
  -0.187600E+00   0.328600E+00  -0.326800E+00
  -0.404500E+00   0.000000E+00  -0.293900E+00
  -0.293900E+00   0.000000E+00  -0.404500E+00
  -0.475500E+00   0.000000E+00  -0.154500E+00
  -0.154500E+00   0.000000E+00  -0.475500E+00
  -0.182200E+00   0.428500E+00  -0.182200E+00
  -0.404500E+00   0.293900E+00   0.000000E+00
   0.000000E+00   0.293900E+00  -0.404500E+00
  -0.475500E+00   0.154500E+00   0.000000E+00
   0.000000E+00   0.154500E+00  -0.475500E+00
  -0.328600E+00  -0.184500E+00  -0.328600E+00
  -0.293900E+00   0.404500E+00   0.000000E+00
   0.000000E+00   0.404500E+00  -0.293900E+00
  -0.426100E+00  -0.182100E+00  -0.187700E+00
  -0.187700E+00  -0.182100E+00  -0.426100E+00
  -0.500000E+00   0.000000E+00   0.000000E+00
   0.000000E+00   0.000000E+00  -0.500000E+00
  -0.154500E+00   0.475500E+00   0.000000E+00
   0.000000E+00   0.475500E+00  -0.154500E+00
  -0.475500E+00  -0.154500E+00   0.000000E+00
   0.000000E+00  -0.154500E+00  -0.475500E+00
  -0.426100E+00   0.182100E+00   0.187800E+00
   0.187800E+00   0.182100E+00  -0.426100E+00
  -0.326800E+00  -0.328600E+00  -0.187600E+00
  -0.187600E+00  -0.328600E+00  -0.326800E+00
  -0.326800E+00   0.328600E+00   0.187600E+00
   0.187600E+00   0.328600E+00  -0.326800E+00
  -0.475500E+00   0.000000E+00   0.154500E+00
   0.154500E+00   0.000000E+00  -0.475500E+00
   0.000000E+00   0.500000E+00   0.000000E+00
  -0.182200E+00   0.428500E+00   0.182200E+00
  -0.404500E+00  -0.293900E+00   0.000000E+00
   0.182200E+00   0.428500E+00  -0.182200E+00
   0.000000E+00  -0.293900E+00  -0.404500E+00
  -0.426100E+00  -0.182100E+00   0.187700E+00
   0.187700E+00  -0.182100E+00  -0.426100E+00
  -0.182200E+00  -0.428500E+00  -0.182200E+00
   0.000000E+00   0.475500E+00   0.154500E+00
   0.154500E+00   0.475500E+00   0.000000E+00
  -0.404500E+00   0.000000E+00   0.293900E+00
   0.293900E+00   0.000000E+00  -0.404500E+00
  -0.328200E+00   0.184400E+00   0.329000E+00
   0.329000E+00   0.184400E+00  -0.328200E+00
  -0.293900E+00  -0.404500E+00   0.000000E+00
   0.000000E+00  -0.404500E+00  -0.293900E+00
  -0.187600E+00   0.328600E+00   0.326800E+00
   0.326800E+00   0.328600E+00  -0.187600E+00
  -0.326800E+00  -0.328600E+00   0.187600E+00
   0.187600E+00  -0.328600E+00  -0.326800E+00
   0.000000E+00   0.404500E+00   0.293900E+00
   0.293900E+00   0.404500E+00   0.000000E+00
  -0.328600E+00  -0.184500E+00   0.328600E+00
   0.328600E+00  -0.184500E+00  -0.328600E+00
  -0.293900E+00   0.000000E+00   0.404500E+00
   0.404500E+00   0.000000E+00  -0.293900E+00
  -0.154500E+00  -0.475500E+00   0.000000E+00
   0.000000E+00  -0.475500E+00  -0.154500E+00
   0.182200E+00   0.428500E+00   0.182200E+00
  -0.187800E+00   0.182100E+00   0.426100E+00
   0.426100E+00   0.182100E+00  -0.187800E+00
   0.000000E+00   0.293900E+00   0.404500E+00
  -0.182200E+00  -0.428500E+00   0.182200E+00
   0.404500E+00   0.293900E+00   0.000000E+00
   0.182200E+00  -0.428500E+00  -0.182200E+00
   0.000000E+00  -0.500000E+00   0.000000E+00
  -0.154500E+00   0.000000E+00   0.475500E+00
   0.475500E+00   0.000000E+00  -0.154500E+00
  -0.187600E+00  -0.328600E+00   0.326800E+00
   0.326800E+00  -0.328600E+00  -0.187600E+00
   0.187600E+00   0.328600E+00   0.326800E+00
   0.326800E+00   0.328600E+00   0.187600E+00
  -0.187700E+00  -0.182100E+00   0.426100E+00
   0.426100E+00  -0.182100E+00  -0.187700E+00
   0.000000E+00   0.154500E+00   0.475500E+00
   0.475500E+00   0.154500E+00   0.000000E+00
   0.000000E+00  -0.475500E+00   0.154500E+00
   0.154500E+00  -0.475500E+00   0.000000E+00
   0.000000E+00   0.000000E+00   0.500000E+00
   0.500000E+00   0.000000E+00   0.000000E+00
   0.187800E+00   0.182100E+00   0.426100E+00
   0.426100E+00   0.182100E+00   0.187800E+00
   0.000000E+00  -0.404500E+00   0.293900E+00
   0.293900E+00  -0.404500E+00   0.000000E+00
   0.329000E+00   0.184400E+00   0.328200E+00
   0.000000E+00  -0.154500E+00   0.475500E+00
   0.475500E+00  -0.154500E+00   0.000000E+00
   0.000000E+00  -0.293900E+00   0.404500E+00
   0.404500E+00  -0.293900E+00   0.000000E+00
   0.182200E+00  -0.428500E+00   0.182200E+00
   0.154500E+00   0.000000E+00   0.475500E+00
   0.475500E+00   0.000000E+00   0.154500E+00
   0.293900E+00   0.000000E+00   0.404500E+00
   0.404500E+00   0.000000E+00   0.293900E+00
   0.187600E+00  -0.328600E+00   0.326800E+00
   0.326800E+00  -0.328600E+00   0.187600E+00
   0.187700E+00  -0.182100E+00   0.426100E+00
   0.426100E+00  -0.182100E+00   0.187700E+00
   0.328600E+00  -0.184500E+00   0.328600E+00
  -0.409917E+00   0.182483E+00  -0.211200E+00
  -0.377550E+00   0.183250E+00  -0.258000E+00
  -0.345183E+00   0.184017E+00  -0.304800E+00
  -0.395063E+00   0.230500E-01  -0.298187E+00
  -0.376188E+00   0.691500E-01  -0.306762E+00
  -0.357313E+00   0.115250E+00  -0.315337E+00
  -0.338438E+00   0.161350E+00  -0.323912E+00
  -0.298287E+00   0.230500E-01  -0.394962E+00
  -0.307063E+00   0.691500E-01  -0.375887E+00
  -0.315837E+00   0.115250E+00  -0.356812E+00
  -0.324612E+00   0.161350E+00  -0.337737E+00
  -0.211333E+00   0.182483E+00  -0.409783E+00
  -0.258400E+00   0.183250E+00  -0.377150E+00
  -0.305467E+00   0.184017E+00  -0.344517E+00
  -0.327075E+00   0.310575E+00  -0.205175E+00
  -0.327625E+00   0.274525E+00  -0.240325E+00
  -0.328175E+00   0.238475E+00  -0.275475E+00
  -0.328725E+00   0.202425E+00  -0.310625E+00
  -0.205275E+00   0.310575E+00  -0.326975E+00
  -0.240625E+00   0.274525E+00  -0.327325E+00
  -0.275975E+00   0.238475E+00  -0.327675E+00
  -0.311325E+00   0.202425E+00  -0.328025E+00
  -0.467267E+00   0.159100E+00  -0.313000E-01
  -0.450800E+00   0.168300E+00  -0.939000E-01
  -0.434333E+00   0.177500E+00  -0.156500E+00
  -0.467267E+00   0.303500E-01  -0.160050E+00
  -0.450800E+00   0.910500E-01  -0.171150E+00
  -0.434333E+00   0.151750E+00  -0.182250E+00
  -0.407200E+00   0.227625E-01  -0.280637E+00
  -0.412600E+00   0.682875E-01  -0.254112E+00
  -0.418000E+00   0.113813E+00  -0.227587E+00
  -0.423400E+00   0.159337E+00  -0.201062E+00
  -0.343350E+00   0.304183E+00  -0.187633E+00
  -0.376450E+00   0.255350E+00  -0.187700E+00
  -0.409550E+00   0.206517E+00  -0.187767E+00
  -0.407200E+00   0.279925E+00  -0.234750E-01
  -0.412600E+00   0.251975E+00  -0.704250E-01
  -0.418000E+00   0.224025E+00  -0.117375E+00
  -0.423400E+00   0.196075E+00  -0.164325E+00
  -0.280637E+00   0.227625E-01  -0.407200E+00
  -0.254112E+00   0.682875E-01  -0.412600E+00
  -0.227587E+00   0.113813E+00  -0.418000E+00
  -0.201062E+00   0.159337E+00  -0.423400E+00
  -0.160050E+00   0.303500E-01  -0.467267E+00
  -0.171150E+00   0.910500E-01  -0.450800E+00
  -0.182250E+00   0.151750E+00  -0.434333E+00
  -0.187633E+00   0.304183E+00  -0.343350E+00
  -0.187700E+00   0.255350E+00  -0.376450E+00
  -0.187767E+00   0.206517E+00  -0.409550E+00
  -0.234750E-01   0.279925E+00  -0.407200E+00
  -0.704250E-01   0.251975E+00  -0.412600E+00
  -0.117375E+00   0.224025E+00  -0.418000E+00
  -0.164325E+00   0.196075E+00  -0.423400E+00
  -0.313000E-01   0.159100E+00  -0.467267E+00
  -0.939000E-01   0.168300E+00  -0.450800E+00
  -0.156500E+00   0.177500E+00  -0.434333E+00
  -0.394788E+00   0.298237E+00  -0.234500E-01
  -0.375362E+00   0.306912E+00  -0.703500E-01
  -0.355938E+00   0.315588E+00  -0.117250E+00
  -0.336512E+00   0.324263E+00  -0.164150E+00
  -0.210800E+00   0.328600E+00  -0.303600E+00
  -0.257200E+00   0.328600E+00  -0.257200E+00
  -0.303600E+00   0.328600E+00  -0.210800E+00
  -0.206300E+00   0.411850E+00  -0.183100E+00
  -0.254500E+00   0.378550E+00  -0.184900E+00
  -0.302700E+00   0.345250E+00  -0.186700E+00
  -0.298013E+00   0.395013E+00  -0.234500E-01
  -0.306237E+00   0.376038E+00  -0.703500E-01
  -0.314462E+00   0.357063E+00  -0.117250E+00
  -0.322688E+00   0.338088E+00  -0.164150E+00
  -0.183100E+00   0.411850E+00  -0.206300E+00
  -0.184900E+00   0.378550E+00  -0.254500E+00
  -0.186700E+00   0.345250E+00  -0.302700E+00
  -0.234500E-01   0.298237E+00  -0.394788E+00
  -0.703500E-01   0.306912E+00  -0.375362E+00
  -0.117250E+00   0.315588E+00  -0.355938E+00
  -0.164150E+00   0.324263E+00  -0.336512E+00
  -0.234500E-01   0.395013E+00  -0.298013E+00
  -0.703500E-01   0.376038E+00  -0.306237E+00
  -0.117250E+00   0.357063E+00  -0.314462E+00
  -0.164150E+00   0.338088E+00  -0.322688E+00
  -0.312333E+00   0.000000E+00  -0.386067E+00
  -0.349200E+00   0.000000E+00  -0.349200E+00
  -0.386067E+00   0.000000E+00  -0.312333E+00
  -0.423400E+00  -0.159338E+00  -0.200975E+00
  -0.418000E+00  -0.113813E+00  -0.227525E+00
  -0.412600E+00  -0.682875E-01  -0.254075E+00
  -0.407200E+00  -0.227625E-01  -0.280625E+00
  -0.463667E+00   0.000000E+00  -0.177733E+00
  -0.440000E+00   0.000000E+00  -0.224200E+00
  -0.416333E+00   0.000000E+00  -0.270667E+00
  -0.338087E+00  -0.161438E+00  -0.324263E+00
  -0.357063E+00  -0.115313E+00  -0.315588E+00
  -0.376038E+00  -0.691875E-01  -0.306913E+00
  -0.395012E+00  -0.230625E-01  -0.298237E+00
  -0.177733E+00   0.000000E+00  -0.463667E+00
  -0.224200E+00   0.000000E+00  -0.440000E+00
  -0.270667E+00   0.000000E+00  -0.416333E+00
  -0.324263E+00  -0.161438E+00  -0.338087E+00
  -0.315588E+00  -0.115313E+00  -0.357063E+00
  -0.306913E+00  -0.691875E-01  -0.376038E+00
  -0.298237E+00  -0.230625E-01  -0.395012E+00
  -0.200975E+00  -0.159338E+00  -0.423400E+00
  -0.227525E+00  -0.113813E+00  -0.418000E+00
  -0.254075E+00  -0.682875E-01  -0.412600E+00
  -0.280625E+00  -0.227625E-01  -0.407200E+00
  -0.475500E+00  -0.135187E+00  -0.193125E-01
  -0.475500E+00  -0.965625E-01  -0.579375E-01
[...]
POINT_DATA  1138
SCALARS  vx_strength  double
LOOKUP_TABLE default
   0.000000E+00
   0.000000E+00
   0.000000E+00
   0.000000E+00
   0.000000E+00
   0.000000E+00
   0.000000E+00
   0.000000E+00
   0.000000E+00
   0.000000E+00
   0.000000E+00
   0.000000E+00
   0.000000E+00
   0.000000E+00
   0.000000E+00
   0.000000E+00
   0.000000E+00
   0.000000E+00
   0.000000E+00
   0.000000E+00
   0.000000E+00
   0.000000E+00
   0.000000E+00
   0.000000E+00
   0.000000E+00
   0.000000E+00
   0.000000E+00
   0.000000E+00
   0.000000E+00
   0.000000E+00
   0.000000E+00
   0.000000E+00
   0.000000E+00
   0.000000E+00
   0.000000E+00
   0.000000E+00
   0.000000E+00
   0.000000E+00
   0.000000E+00
   0.000000E+00
   0.000000E+00
   0.000000E+00
   0.000000E+00
   0.000000E+00
   0.000000E+00
   0.000000E+00
   0.000000E+00
   0.000000E+00
   0.000000E+00
   0.000000E+00
   0.000000E+00
   0.000000E+00
   0.000000E+00
   0.000000E+00
   0.000000E+00
   0.000000E+00
   0.000000E+00
   0.000000E+00
   0.000000E+00
   0.000000E+00
   0.000000E+00
   0.000000E+00
   0.000000E+00
   0.000000E+00
   0.000000E+00
   0.000000E+00
   0.000000E+00
   0.000000E+00
   0.000000E+00
   0.000000E+00
   0.000000E+00
   0.000000E+00
   0.000000E+00
   0.000000E+00
   0.000000E+00
   0.000000E+00
   0.000000E+00
   0.000000E+00
   0.000000E+00
   0.000000E+00
   0.000000E+00
   0.000000E+00
   0.000000E+00
   0.000000E+00
   0.000000E+00
   0.000000E+00
   0.000000E+00
   0.000000E+00
   0.000000E+00
   0.000000E+00
   0.000000E+00
   0.000000E+00
   0.000000E+00
   0.000000E+00
   0.000000E+00
   0.000000E+00
   0.000000E+00
   0.000000E+00
   0.000000E+00
   0.000000E+00
   0.000000E+00
   0.000000E+00
   0.767983E-03
   0.767983E-03
   0.767983E-03
   0.887672E-03
   0.887672E-03
   0.887672E-03
   0.887672E-03
   0.150802E-02
   0.150802E-02
   0.150802E-02
   0.150802E-02
   0.170855E-03
   0.170855E-03
   0.170855E-03
   0.137868E-02
   0.137868E-02
   0.137868E-02
   0.137868E-02
   0.476545E-03
   0.476545E-03
   0.476545E-03
   0.476545E-03
   0.840605E-03
   0.840605E-03
   0.840605E-03
   0.808077E-03
   0.808077E-03
   0.808077E-03
   0.102393E-02
   0.102393E-02
   0.102393E-02
   0.102393E-02
   0.881247E-03
   0.881247E-03
   0.881247E-03
   0.971033E-03
   0.971033E-03
   0.971033E-03
   0.971033E-03
   0.632434E-03
   0.632434E-03
   0.632434E-03
   0.632434E-03
   0.273968E-02
   0.273968E-02
   0.273968E-02
   0.289422E-02
   0.289422E-02
   0.289422E-02
   0.926715E-03
   0.926715E-03
   0.926715E-03
   0.926715E-03
   0.128628E-02
   0.128628E-02
   0.128628E-02
   0.990687E-03
   0.990687E-03
   0.990687E-03
   0.990687E-03
   0.711171E-03
   0.711171E-03
   0.711171E-03
   0.170025E-03
   0.170025E-03
   0.170025E-03
   0.158991E-02
   0.158991E-02
   0.158991E-02
   0.158991E-02
   0.280652E-02
   0.280652E-02
   0.280652E-02
   0.661333E-03
   0.661333E-03
   0.661333E-03
   0.661333E-03
   0.669661E-03
   0.669661E-03
   0.669661E-03
   0.669661E-03
   0.377902E-05
   0.377902E-05
   0.377902E-05
   0.939106E-03
   0.939106E-03
   0.939106E-03
   0.939106E-03
   0.878316E-05
   0.878316E-05
   0.878316E-05
   0.965463E-03
   0.965463E-03
   0.965463E-03
   0.965463E-03
   0.369156E-04
   0.369156E-04
   0.369156E-04
   0.152759E-02
   0.152759E-02
   0.152759E-02
   0.152759E-02
   0.644774E-03
   0.644774E-03
   0.644774E-03
   0.644774E-03
   0.474363E-03
   0.474363E-03
   0.474363E-03
   0.474363E-03
   0.485004E-03
   0.485004E-03
   0.485004E-03
   0.485004E-03
   0.827507E-03
   0.827507E-03
   0.827507E-03
   0.301652E-05
   0.301652E-05
   0.301652E-05
   0.275492E-05
   0.275492E-05
   0.275492E-05
   0.266673E-02
   0.266673E-02
   0.266673E-02
   0.630685E-03
   0.630685E-03
   0.630685E-03
   0.630685E-03
   0.610055E-03
   0.610055E-03
   0.610055E-03
   0.610055E-03
   0.591905E-03
   0.591905E-03
   0.591905E-03
   0.591905E-03
   0.919999E-03
   0.919999E-03
   0.919999E-03
   0.919999E-03
   0.280558E-02
   0.280558E-02
   0.280558E-02
   0.136881E-02
   0.136881E-02
   0.136881E-02
   0.484335E-05
   0.484335E-05
   0.484335E-05
   0.100134E-02
   0.100134E-02
   0.100134E-02
   0.100134E-02
   0.967136E-03
   0.967136E-03
   0.967136E-03
   0.967136E-03
   0.224121E-05
   0.224121E-05
   0.224121E-05
   0.244121E-02
   0.244121E-02
   0.244121E-02
   0.283078E-02
   0.283078E-02
   0.283078E-02
   0.163871E-02
   0.163871E-02
   0.163871E-02
   0.163871E-02
   0.136062E-02
   0.136062E-02
   0.136062E-02
   0.136062E-02
   0.842428E-03
   0.842428E-03
   0.842428E-03
   0.480072E-03
   0.480072E-03
   0.480072E-03
   0.480072E-03
   0.101347E-05
   0.101347E-05
   0.101347E-05
   0.212289E-02
   0.212289E-02
   0.212289E-02
   0.198661E-02
   0.198661E-02
   0.198661E-02
   0.136237E-02
   0.136237E-02
   0.136237E-02
   0.136237E-02
   0.811607E-03
   0.811607E-03
   0.811607E-03
   0.141042E-02
   0.141042E-02
   0.141042E-02
   0.141042E-02
   0.112225E-03
   0.112225E-03
   0.112225E-03
   0.454631E-03
   0.454631E-03
   0.454631E-03
   0.454631E-03
   0.221460E-05
   0.221460E-05
   0.221460E-05
   0.599284E-03
   0.599284E-03
   0.599284E-03
   0.599284E-03
   0.158029E-02
   0.158029E-02
   0.158029E-02
   0.158029E-02
   0.280884E-02
   0.280884E-02
   0.280884E-02
   0.135400E-02
   0.135400E-02
   0.135400E-02
   0.135400E-02
   0.158123E-02
   0.158123E-02
   0.158123E-02
   0.158123E-02
   0.840781E-03
   0.840781E-03
   0.840781E-03
   0.975424E-03
   0.975424E-03
   0.975424E-03
   0.975424E-03
   0.840957E-03
   0.840957E-03
   0.840957E-03
   0.290405E-02
   0.290405E-02
   0.290405E-02
   0.129619E-02
   0.129619E-02
   0.129619E-02
   0.938318E-03
   0.938318E-03
   0.938318E-03
   0.938318E-03
   0.268401E-05
   0.268401E-05
   0.268401E-05
   0.680960E-06
   0.680960E-06
   0.680960E-06
   0.306249E-05
   0.306249E-05
   0.306249E-05
   0.212870E-02
   0.212870E-02
   0.212870E-02
   0.828765E-06
   0.828765E-06
   0.828765E-06
   0.749671E-03
   0.749671E-03
   0.749671E-03
   0.749671E-03
   0.280367E-02
   0.280367E-02
   0.280367E-02
   0.748128E-03
   0.748128E-03
   0.748128E-03
   0.748128E-03
   0.216246E-02
   0.216246E-02
   0.216246E-02
   0.192197E-02
   0.192197E-02
   0.192197E-02
   0.141028E-02
   0.141028E-02
   0.141028E-02
   0.141028E-02
   0.478099E-03
   0.478099E-03
   0.478099E-03
   0.478099E-03
   0.845018E-03
   0.845018E-03
   0.845018E-03
   0.426421E-05
   0.426421E-05
   0.426421E-05
   0.137812E-02
   0.137812E-02
   0.137812E-02
   0.137812E-02
   0.284086E-02
   0.284086E-02
   0.284086E-02
   0.197461E-02
   0.197461E-02
   0.197461E-02
   0.816230E-03
   0.816230E-03
   0.816230E-03
   0.954945E-03
   0.954945E-03
   0.954945E-03
   0.954945E-03
   0.806659E-03
   0.806659E-03
   0.806659E-03
   0.850171E-03
   0.850171E-03
   0.850171E-03
   0.135543E-02
   0.135543E-02
   0.135543E-02
   0.958903E-03
   0.958903E-03
   0.958903E-03
   0.545488E-03
   0.545488E-03
   0.545488E-03
   0.545488E-03
   0.107685E-02
   0.107685E-02
   0.107685E-02
   0.991556E-03
   0.991556E-03
   0.991556E-03
   0.991556E-03
   0.159317E-02
   0.159317E-02
   0.159317E-02
   0.159317E-02
   0.725137E-03
   0.725137E-03
   0.725137E-03
   0.173045E-03
   0.173045E-03
   0.173045E-03
   0.280411E-02
   0.280411E-02
   0.280411E-02
   0.650305E-03
   0.650305E-03
   0.650305E-03
   0.650305E-03
   0.680391E-03
   0.680391E-03
   0.680391E-03
   0.680391E-03
   0.715132E-03
   0.715132E-03
   0.715132E-03
   0.140759E-02
   0.140759E-02
   0.140759E-02
   0.140759E-02
   0.170740E-03
   0.170740E-03
   0.170740E-03
   0.144053E-02
   0.144053E-02
   0.144053E-02
   0.112821E-02
   0.112821E-02
   0.112821E-02
   0.112821E-02
   0.157164E-02
   0.157164E-02
   0.157164E-02
   0.813586E-03
   0.813586E-03
   0.813586E-03
   0.315202E-05
   0.315202E-05
   0.315202E-05
   0.101978E-04
   0.101978E-04
   0.101978E-04
   0.960988E-03
   0.960988E-03
   0.960988E-03
   0.191903E-05
   0.191903E-05
   0.191903E-05
   0.216520E-02
   0.216520E-02
   0.216520E-02
   0.926183E-03
   0.926183E-03
   0.926183E-03
   0.926183E-03
   0.281198E-02
   0.281198E-02
   0.281198E-02
   0.137622E-02
   0.137622E-02
   0.137622E-02
   0.966555E-03
   0.966555E-03
   0.966555E-03
   0.966555E-03
   0.100111E-02
   0.100111E-02
   0.100111E-02
   0.100111E-02
   0.551026E-05
   0.551026E-05
   0.551026E-05
   0.965341E-03
   0.965341E-03
   0.965341E-03
   0.124677E-02
   0.124677E-02
   0.124677E-02
   0.592225E-03
   0.592225E-03
   0.592225E-03
   0.592225E-03
   0.164107E-02
   0.164107E-02
   0.164107E-02
   0.164107E-02
   0.243304E-02
   0.243304E-02
   0.243304E-02
   0.136766E-02
   0.136766E-02
   0.136766E-02
   0.136766E-02
   0.942503E-03
   0.942503E-03
   0.942503E-03
   0.942503E-03
   0.816165E-03
   0.816165E-03
   0.816165E-03
   0.842295E-03
   0.842295E-03
   0.842295E-03
   0.554427E-03
   0.554427E-03
   0.554427E-03
   0.554427E-03
   0.135643E-02
   0.135643E-02
   0.135643E-02
   0.106965E-02
   0.106965E-02
   0.106965E-02
   0.589872E-03
   0.589872E-03
   0.589872E-03
   0.589872E-03
   0.280781E-02
   0.280781E-02
   0.280781E-02
   0.916402E-03
   0.916402E-03
   0.916402E-03
   0.916402E-03
   0.136374E-02
   0.136374E-02
   0.136374E-02
   0.141840E-02
   0.141840E-02
   0.141840E-02
   0.141840E-02
   0.281378E-02
   0.281378E-02
   0.281378E-02
   0.192844E-02
   0.192844E-02
   0.192844E-02
   0.120168E-05
   0.120168E-05
   0.120168E-05
   0.970970E-03
   0.970970E-03
   0.970970E-03
   0.977967E-03
   0.977967E-03
   0.977967E-03
   0.977967E-03
   0.964515E-03
   0.964515E-03
   0.964515E-03
   0.964515E-03
   0.516734E-05
   0.516734E-05
   0.516734E-05
   0.236966E-05
   0.236966E-05
   0.236966E-05
   0.480575E-03
   0.480575E-03
   0.480575E-03
   0.480575E-03
   0.459652E-03
   0.459652E-03
   0.459652E-03
   0.459652E-03
   0.112967E-03
   0.112967E-03
   0.112967E-03
   0.152655E-02
   0.152655E-02
   0.152655E-02
   0.152655E-02
   0.458097E-03
   0.458097E-03
   0.458097E-03
   0.458097E-03
   0.275969E-03
   0.275969E-03
   0.275969E-03
   0.275969E-03
   0.153715E-03
   0.153715E-03
   0.153715E-03
   0.153715E-03
   0.199336E-03
   0.199336E-03
   0.199336E-03
   0.158134E-02
   0.158134E-02
   0.158134E-02
   0.158134E-02
   0.600707E-03
   0.600707E-03
   0.600707E-03
   0.600707E-03
   0.397899E-05
   0.397899E-05
   0.397899E-05
   0.134246E-02
   0.134246E-02
   0.134246E-02
   0.134246E-02
   0.280273E-02
   0.280273E-02
   0.280273E-02
   0.158609E-02
   0.158609E-02
   0.158609E-02
   0.158609E-02
   0.649615E-03
   0.649615E-03
   0.649615E-03
   0.649615E-03
   0.290017E-02
   0.290017E-02
   0.290017E-02
   0.678147E-03
   0.678147E-03
   0.678147E-03
   0.678147E-03
   0.428179E-03
   0.428179E-03
   0.428179E-03
   0.428179E-03
   0.225046E-03
   0.225046E-03
   0.225046E-03
   0.186484E-03
   0.186484E-03
   0.186484E-03
   0.186484E-03
   0.141342E-02
   0.141342E-02
   0.141342E-02
   0.141342E-02
   0.715488E-03
   0.715488E-03
   0.715488E-03
   0.171904E-03
   0.171904E-03
   0.171904E-03
   0.110723E-02
   0.110723E-02
   0.110723E-02
   0.110723E-02
   0.144764E-02
   0.144764E-02
   0.144764E-02
   0.157744E-02
   0.157744E-02
   0.157744E-02
   0.158676E-02
   0.158676E-02
   0.158676E-02
   0.158676E-02
   0.243517E-02
   0.243517E-02
   0.243517E-02
   0.134588E-02
   0.134588E-02
   0.134588E-02
   0.134588E-02
   0.876444E-08
   0.876444E-08
   0.876444E-08
   0.421827E-03
   0.421827E-03
   0.421827E-03
   0.421827E-03
   0.597639E-03
   0.597639E-03
   0.597639E-03
   0.597639E-03
   0.151662E-02
   0.151662E-02
   0.151662E-02
   0.151662E-02
   0.111190E-03
   0.111190E-03
   0.111190E-03
   0.448226E-03
   0.448226E-03
   0.448226E-03
   0.448226E-03
   0.164928E-03
   0.164928E-03
   0.164928E-03
   0.164928E-03
   0.274785E-03
   0.274785E-03
   0.274785E-03
   0.274785E-03
   0.208206E-03
   0.208206E-03
   0.208206E-03
   0.662272E-03
   0.662272E-03
   0.662272E-03
   0.662272E-03
   0.650509E-03
   0.650509E-03
   0.650509E-03
   0.650509E-03
   0.396278E-05
   0.396278E-05
   0.396278E-05
   0.121550E-05
   0.121550E-05
   0.121550E-05
   0.740710E-03
   0.740710E-03
   0.740710E-03
   0.740710E-03
   0.730569E-03
   0.730569E-03
   0.730569E-03
   0.730569E-03
   0.280054E-02
   0.280054E-02
   0.280054E-02
   0.746897E-03
   0.746897E-03
   0.746897E-03
   0.746897E-03
   0.749052E-03
   0.749052E-03
   0.749052E-03
   0.749052E-03
   0.617495E-07
   0.617495E-07
   0.617495E-07
   0.192226E-02
   0.192226E-02
   0.192226E-02
   0.216171E-02
   0.216171E-02
   0.216171E-02
   0.141087E-02
   0.141087E-02
   0.141087E-02
   0.141087E-02
   0.144403E-02
   0.144403E-02
   0.144403E-02
   0.125092E-02
   0.125092E-02
   0.125092E-02
   0.128543E-02
   0.128543E-02
   0.128543E-02
   0.265671E-02
   0.265671E-02
   0.265671E-02
   0.929345E-03
   0.929345E-03
   0.929345E-03
   0.929345E-03
   0.771603E-03
   0.771603E-03
   0.771603E-03
   0.771603E-03
   0.443339E-03
   0.443339E-03
   0.443339E-03
   0.428998E-03
   0.428998E-03
   0.428998E-03
   0.136463E-02
   0.136463E-02
   0.136463E-02
   0.136463E-02
   0.283311E-02
   0.283311E-02
   0.283311E-02
   0.163668E-02
   0.163668E-02
   0.163668E-02
   0.163668E-02
   0.281094E-02
   0.281094E-02
   0.281094E-02
   0.923010E-03
   0.923010E-03
   0.923010E-03
   0.923010E-03
   0.137089E-02
   0.137089E-02
   0.137089E-02
   0.175698E-05
   0.175698E-05
   0.175698E-05
   0.762913E-03
   0.762913E-03
   0.762913E-03
   0.762913E-03
   0.192908E-03
   0.192908E-03
   0.192908E-03
   0.192908E-03
   0.124748E-02
   0.124748E-02
   0.124748E-02
   0.966739E-03
   0.966739E-03
   0.966739E-03
   0.592154E-03
   0.592154E-03
   0.592154E-03
   0.592154E-03
   0.216278E-02
   0.216278E-02
   0.216278E-02
   0.112322E-05
   0.112322E-05
   0.112322E-05
   0.604265E-03
   0.604265E-03
   0.604265E-03
   0.604265E-03
   0.264048E-02
   0.264048E-02
   0.264048E-02
   0.601174E-03
   0.601174E-03
   0.601174E-03
   0.601174E-03
   0.120438E-04
   0.120438E-04
   0.120438E-04
   0.415828E-05
   0.415828E-05
   0.415828E-05
   0.448278E-03
   0.448278E-03
   0.448278E-03
   0.479569E-03
   0.479569E-03
   0.479569E-03
   0.479569E-03
   0.480940E-03
   0.480940E-03
   0.480940E-03
   0.480940E-03
   0.289638E-02
   0.289638E-02
   0.289638E-02
   0.642463E-03
   0.642463E-03
   0.642463E-03
   0.642463E-03
   0.684202E-03
   0.684202E-03
   0.684202E-03
   0.684202E-03
   0.224419E-03
   0.224419E-03
   0.224419E-03
   0.428246E-03
   0.428246E-03
   0.428246E-03
   0.428246E-03
   0.188307E-03
   0.188307E-03
   0.188307E-03
   0.188307E-03
   0.135661E-02
   0.135661E-02
   0.135661E-02
   0.157792E-02
   0.157792E-02
   0.157792E-02
   0.111911E-02
   0.111911E-02
   0.111911E-02
   0.111911E-02
   0.272926E-03
   0.272926E-03
   0.272926E-03
   0.272926E-03
   0.227191E-03
   0.227191E-03
   0.227191E-03
   0.130381E-02
   0.130381E-02
   0.130381E-02
   0.941017E-03
   0.941017E-03
   0.941017E-03
   0.941017E-03
   0.431320E-03
   0.431320E-03
   0.431320E-03
   0.771158E-03
   0.771158E-03
   0.771158E-03
   0.771158E-03
   0.212148E-02
   0.212148E-02
   0.212148E-02
   0.197120E-02
   0.197120E-02
   0.197120E-02
   0.137438E-02
   0.137438E-02
   0.137438E-02
   0.137438E-02
   0.409360E-05
   0.409360E-05
   0.409360E-05
   0.477444E-03
   0.477444E-03
   0.477444E-03
   0.477444E-03
   0.438877E-03
   0.438877E-03
   0.438877E-03
   0.281028E-02
   0.281028E-02
   0.281028E-02
   0.192867E-02
   0.192867E-02
   0.192867E-02
   0.141790E-02
   0.141790E-02
   0.141790E-02
   0.141790E-02
   0.971884E-03
   0.971884E-03
   0.971884E-03
   0.136047E-05
   0.136047E-05
   0.136047E-05
   0.214189E-02
   0.214189E-02
   0.214189E-02
   0.836563E-05
   0.836563E-05
   0.836563E-05
   0.456695E-05
   0.456695E-05
   0.456695E-05
   0.450226E-05
   0.450226E-05
   0.450226E-05
   0.967781E-03
   0.967781E-03
   0.967781E-03
   0.107528E-02
   0.107528E-02
   0.107528E-02
   0.560872E-03
   0.560872E-03
   0.560872E-03
   0.560872E-03
   0.727842E-03
   0.727842E-03
   0.727842E-03
   0.727842E-03
   0.203767E-03
   0.203767E-03
   0.203767E-03
   0.455745E-03
   0.455745E-03
   0.455745E-03
   0.242366E-02
   0.242366E-02
   0.242366E-02
   0.133309E-02
   0.133309E-02
   0.133309E-02
   0.133309E-02
   0.159113E-02
   0.159113E-02
   0.159113E-02
   0.159113E-02
   0.595118E-03
   0.595118E-03
   0.595118E-03
   0.595118E-03
   0.423259E-03
   0.423259E-03
   0.423259E-03
   0.423259E-03
   0.837843E-06
   0.837843E-06
   0.837843E-06
   0.460264E-03
   0.460264E-03
   0.460264E-03
   0.460264E-03
   0.167132E-03
   0.167132E-03
   0.167132E-03
   0.167132E-03
   0.139509E-02
   0.139509E-02
   0.139509E-02
   0.139509E-02
   0.283735E-02
   0.283735E-02
   0.283735E-02
   0.195945E-02
   0.195945E-02
   0.195945E-02
   0.279182E-05
   0.279182E-05
   0.279182E-05
   0.462986E-03
   0.462986E-03
   0.462986E-03
   0.446761E-03
   0.446761E-03
   0.446761E-03
   0.446761E-03
   0.163832E-02
   0.163832E-02
   0.163832E-02
   0.163832E-02
   0.136966E-02
   0.136966E-02
   0.136966E-02
   0.136966E-02
   0.195126E-03
   0.195126E-03
   0.195126E-03
   0.195126E-03
   0.767712E-03
   0.767712E-03
   0.767712E-03
   0.767712E-03
   0.145275E-02
   0.145275E-02
   0.145275E-02
   0.125150E-02
   0.125150E-02
   0.125150E-02
   0.720151E-05
   0.720151E-05
   0.720151E-05
   0.972847E-03
   0.972847E-03
   0.972847E-03
   0.384064E-04
   0.384064E-04
   0.384064E-04
   0.439028E-03
   0.439028E-03
   0.439028E-03
   0.325509E-04
   0.325509E-04
   0.325509E-04
   0.583151E-03
   0.583151E-03
   0.583151E-03
   0.583151E-03
   0.400212E-03
   0.400212E-03
   0.400212E-03
   0.400212E-03
   0.731921E-03
   0.731921E-03
   0.731921E-03
   0.731921E-03
   0.232547E-03
   0.232547E-03
   0.232547E-03
   0.232547E-03
   0.135157E-02
   0.135157E-02
   0.135157E-02
   0.109465E-02
   0.109465E-02
   0.109465E-02
   0.109465E-02
   0.158673E-02
   0.158673E-02
   0.158673E-02
   0.285754E-03
   0.285754E-03
   0.285754E-03
   0.285754E-03
   0.209342E-03
   0.209342E-03
   0.209342E-03
   0.107491E-02
   0.107491E-02
   0.107491E-02
   0.224518E-03
   0.224518E-03
   0.224518E-03

SCALARS  vx_core_radius  double
LOOKUP_TABLE default
   0.000000E+00
   0.000000E+00
   0.000000E+00
   0.000000E+00
   0.000000E+00
   0.000000E+00
   0.000000E+00
   0.000000E+00
   0.000000E+00
   0.000000E+00
   0.000000E+00
   0.000000E+00
   0.000000E+00
   0.000000E+00
   0.000000E+00
   0.000000E+00
   0.000000E+00
   0.000000E+00
   0.000000E+00
   0.000000E+00
   0.000000E+00
   0.000000E+00
   0.000000E+00
   0.000000E+00
   0.000000E+00
   0.000000E+00
   0.000000E+00
   0.000000E+00
   0.000000E+00
   0.000000E+00
   0.000000E+00