# vtk DataFile Version 2.0
This file was created by Fortran
ASCII
DATASET UNSTRUCTURED_GRID
POINTS  1138  DOUBLE
  -0.329000E+00   0.184400E+00  -0.328200E+00
  -0.426100E+00   0.182100E+00  -0.187800E+00
  -0.187800E+00   0.182100E+00  -0.426100E+00
  -0.326800E+00   0.328600E+00  -0.187600E+00
  -0.187600E+00   0.328600E+00  -0.326800E+00
  -0.404500E+00   0.000000E+00  -0.293900E+00
  -0.293900E+00   0.000000E+00  -0.404500E+00
  -0.475500E+00   0.000000E+00  -0.154500E+00
  -0.154500E+00   0.000000E+00  -0.475500E+00
  -0.182200E+00   0.428500E+00  -0.182200E+00
  -0.404500E+00   0.293900E+00   0.000000E+00
   0.000000E+00   0.293900E+00  -0.404500E+00
  -0.475500E+00   0.154500E+00   0.000000E+00
   0.000000E+00   0.154500E+00  -0.475500E+00
  -0.328600E+00  -0.184500E+00  -0.328600E+00
  -0.293900E+00   0.404500E+00   0.000000E+00
   0.000000E+00   0.404500E+00  -0.293900E+00
  -0.426100E+00  -0.182100E+00  -0.187700E+00
  -0.187700E+00  -0.182100E+00  -0.426100E+00
  -0.500000E+00   0.000000E+00   0.000000E+00
   0.000000E+00   0.000000E+00  -0.500000E+00
  -0.154500E+00   0.475500E+00   0.000000E+00
   0.000000E+00   0.475500E+00  -0.154500E+00
  -0.475500E+00  -0.154500E+00   0.000000E+00
   0.000000E+00  -0.154500E+00  -0.475500E+00
  -0.426100E+00   0.182100E+00   0.187800E+00
   0.187800E+00   0.182100E+00  -0.426100E+00
  -0.326800E+00  -0.328600E+00  -0.187600E+00
  -0.187600E+00  -0.328600E+00  -0.326800E+00
  -0.326800E+00   0.328600E+00   0.187600E+00
   0.187600E+00   0.328600E+00  -0.326800E+00
  -0.475500E+00   0.000000E+00   0.154500E+00
   0.154500E+00   0.000000E+00  -0.475500E+00
   0.000000E+00   0.500000E+00   0.000000E+00
  -0.182200E+00   0.428500E+00   0.182200E+00
  -0.404500E+00  -0.293900E+00   0.000000E+00
   0.182200E+00   0.428500E+00  -0.182200E+00
   0.000000E+00  -0.293900E+00  -0.404500E+00
  -0.426100E+00  -0.182100E+00   0.187700E+00
   0.187700E+00  -0.182100E+00  -0.426100E+00
  -0.182200E+00  -0.428500E+00  -0.182200E+00
   0.000000E+00   0.475500E+00   0.154500E+00
   0.154500E+00   0.475500E+00   0.000000E+00
  -0.404500E+00   0.000000E+00   0.293900E+00
   0.293900E+00   0.000000E+00  -0.404500E+00
  -0.328200E+00   0.184400E+00   0.329000E+00
   0.329000E+00   0.184400E+00  -0.328200E+00
  -0.293900E+00  -0.404500E+00   0.000000E+00
   0.000000E+00  -0.404500E+00  -0.293900E+00
  -0.187600E+00   0.328600E+00   0.326800E+00
   0.326800E+00   0.328600E+00  -0.187600E+00
  -0.326800E+00  -0.328600E+00   0.187600E+00
   0.187600E+00  -0.328600E+00  -0.326800E+00
   0.000000E+00   0.404500E+00   0.293900E+00
   0.293900E+00   0.404500E+00   0.000000E+00
  -0.328600E+00  -0.184500E+00   0.328600E+00
   0.328600E+00  -0.184500E+00  -0.328600E+00
  -0.293900E+00   0.000000E+00   0.404500E+00
   0.404500E+00   0.000000E+00  -0.293900E+00
  -0.154500E+00  -0.475500E+00   0.000000E+00
   0.000000E+00  -0.475500E+00  -0.154500E+00
   0.182200E+00   0.428500E+00   0.182200E+00
  -0.187800E+00   0.182100E+00   0.426100E+00
   0.426100E+00   0.182100E+00  -0.187800E+00
   0.000000E+00   0.293900E+00   0.404500E+00
  -0.182200E+00  -0.428500E+00   0.182200E+00
   0.404500E+00   0.293900E+00   0.000000E+00
   0.182200E+00  -0.428500E+00  -0.182200E+00
   0.000000E+00  -0.500000E+00   0.000000E+00
  -0.154500E+00   0.000000E+00   0.475500E+00
   0.475500E+00   0.000000E+00  -0.154500E+00
  -0.187600E+00  -0.328600E+00   0.326800E+00
   0.326800E+00  -0.328600E+00  -0.187600E+00
   0.187600E+00   0.328600E+00   0.326800E+00
   0.326800E+00   0.328600E+00   0.187600E+00
  -0.187700E+00  -0.182100E+00   0.426100E+00
   0.426100E+00  -0.182100E+00  -0.187700E+00
   0.000000E+00   0.154500E+00   0.475500E+00
   0.475500E+00   0.154500E+00   0.000000E+00
   0.000000E+00  -0.475500E+00   0.154500E+00
   0.154500E+00  -0.475500E+00   0.000000E+00
   0.000000E+00   0.000000E+00   0.500000E+00
   0.500000E+00   0.000000E+00   0.000000E+00
   0.187800E+00   0.182100E+00   0.426100E+00
   0.426100E+00   0.182100E+00   0.187800E+00
   0.000000E+00  -0.404500E+00   0.293900E+00
   0.293900E+00  -0.404500E+00   0.000000E+00
   0.329000E+00   0.184400E+00   0.328200E+00
   0.000000E+00  -0.154500E+00   0.475500E+00
   0.475500E+00  -0.154500E+00   0.000000E+00
   0.000000E+00  -0.293900E+00   0.404500E+00
   0.404500E+00  -0.293900E+00   0.000000E+00
   0.182200E+00  -0.428500E+00   0.182200E+00
   0.154500E+00   0.000000E+00   0.475500E+00
   0.475500E+00   0.000000E+00   0.154500E+00
   0.293900E+00   0.000000E+00   0.404500E+00
   0.404500E+00   0.000000E+00   0.293900E+00
   0.187600E+00  -0.328600E+00   0.326800E+00
   0.326800E+00  -0.328600E+00   0.187600E+00
   0.187700E+00  -0.182100E+00   0.426100E+00
   0.426100E+00  -0.182100E+00   0.187700E+00
   0.328600E+00  -0.184500E+00   0.328600E+00
  -0.409917E+00   0.182483E+00  -0.211200E+00
  -0.377550E+00   0.183250E+00  -0.258000E+00
  -0.345183E+00   0.184017E+00  -0.304800E+00
  -0.395063E+00   0.230500E-01  -0.298187E+00
  -0.376188E+00   0.691500E-01  -0.306762E+00
  -0.357313E+00   0.115250E+00  -0.315337E+00
  -0.338438E+00   0.161350E+00  -0.323912E+00
  -0.298287E+00   0.230500E-01  -0.394962E+00
  -0.307063E+00   0.691500E-01  -0.375887E+00
  -0.315837E+00   0.115250E+00  -0.356812E+00
  -0.324612E+00   0.161350E+00  -0.337737E+00
  -0.211333E+00   0.182483E+00  -0.409783E+00
  -0.258400E+00   0.183250E+00  -0.377150E+00
  -0.305467E+00   0.184017E+00  -0.344517E+00
  -0.327075E+00   0.310575E+00  -0.205175E+00
  -0.327625E+00   0.274525E+00  -0.240325E+00
  -0.328175E+00   0.238475E+00  -0.275475E+00
  -0.328725E+00   0.202425E+00  -0.310625E+00
  -0.205275E+00   0.310575E+00  -0.326975E+00
  -0.240625E+00   0.274525E+00  -0.327325E+00
  -0.275975E+00   0.238475E+00  -0.327675E+00
  -0.311325E+00   0.202425E+00  -0.328025E+00
  -0.467267E+00   0.159100E+00  -0.313000E-01
  -0.450800E+00   0.168300E+00  -0.939000E-01
  -0.434333E+00   0.177500E+00  -0.156500E+00
  -0.467267E+00   0.303500E-01  -0.160050E+00
  -0.450800E+00   0.910500E-01  -0.171150E+00
  -0.434333E+00   0.151750E+00  -0.182250E+00
  -0.407200E+00   0.227625E-01  -0.280637E+00
  -0.412600E+00   0.682875E-01  -0.254112E+00
  -0.418000E+00   0.113813E+00  -0.227587E+00
  -0.423400E+00   0.159337E+00  -0.201062E+00
  -0.343350E+00   0.304183E+00  -0.187633E+00
  -0.376450E+00   0.255350E+00  -0.187700E+00
  -0.409550E+00   0.206517E+00  -0.187767E+00
  -0.407200E+00   0.279925E+00  -0.234750E-01
  -0.412600E+00   0.251975E+00  -0.704250E-01
  -0.418000E+00   0.224025E+00  -0.117375E+00
  -0.423400E+00   0.196075E+00  -0.164325E+00
  -0.280637E+00   0.227625E-01  -0.407200E+00
  -0.254112E+00   0.682875E-01  -0.412600E+00
  -0.227587E+00   0.113813E+00  -0.418000E+00
  -0.201062E+00   0.159337E+00  -0.423400E+00
  -0.160050E+00   0.303500E-01  -0.467267E+00
  -0.171150E+00   0.910500E-01  -0.450800E+00
  -0.182250E+00   0.151750E+00  -0.434333E+00
  -0.187633E+00   0.304183E+00  -0.343350E+00
  -0.187700E+00   0.255350E+00  -0.376450E+00
  -0.187767E+00   0.206517E+00  -0.409550E+00
  -0.234750E-01   0.279925E+00  -0.407200E+00
  -0.704250E-01   0.251975E+00  -0.412600E+00
  -0.117375E+00   0.224025E+00  -0.418000E+00
  -0.164325E+00   0.196075E+00  -0.423400E+00
  -0.313000E-01   0.159100E+00  -0.467267E+00
  -0.939000E-01   0.168300E+00  -0.450800E+00
  -0.156500E+00   0.177500E+00  -0.434333E+00
  -0.394788E+00   0.298237E+00  -0.234500E-01
  -0.375362E+00   0.306912E+00  -0.703500E-01
  -0.355938E+00   0.315588E+00  -0.117250E+00
  -0.336512E+00   0.324263E+00  -0.164150E+00
  -0.210800E+00   0.328600E+00  -0.303600E+00
  -0.257200E+00   0.328600E+00  -0.257200E+00
  -0.303600E+00   0.328600E+00  -0.210800E+00
  -0.206300E+00   0.411850E+00  -0.183100E+00
  -0.254500E+00   0.378550E+00  -0.184900E+00
  -0.302700E+00   0.345250E+00  -0.186700E+00
  -0.298013E+00   0.395013E+00  -0.234500E-01
  -0.306237E+00   0.376038E+00  -0.703500E-01
  -0.314462E+00   0.357063E+00  -0.117250E+00
  -0.322688E+00   0.338088E+00  -0.164150E+00
  -0.183100E+00   0.411850E+00  -0.206300E+00
  -0.184900E+00   0.378550E+00  -0.254500E+00
  -0.186700E+00   0.345250E+00  -0.302700E+00
  -0.234500E-01   0.298237E+00  -0.394788E+00
  -0.703500E-01   0.306912E+00  -0.375362E+00
  -0.117250E+00   0.315588E+00  -0.355938E+00
  -0.164150E+00   0.324263E+00  -0.336512E+00
  -0.234500E-01   0.395013E+00  -0.298013E+00
  -0.703500E-01   0.376038E+00  -0.306237E+00
  -0.117250E+00   0.357063E+00  -0.314462E+00
  -0.164150E+00   0.338088E+00  -0.322688E+00
  -0.312333E+00   0.000000E+00  -0.386067E+00
  -0.349200E+00   0.000000E+00  -0.349200E+00
  -0.386067E+00   0.000000E+00  -0.312333E+00
  -0.423400E+00  -0.159338E+00  -0.200975E+00
  -0.418000E+00  -0.113813E+00  -0.227525E+00
  -0.412600E+00  -0.682875E-01  -0.254075E+00
  -0.407200E+00  -0.227625E-01  -0.280625E+00
  -0.463667E+00   0.000000E+00  -0.177733E+00
  -0.440000E+00   0.000000E+00  -0.224200E+00
  -0.416333E+00   0.000000E+00  -0.270667E+00
  -0.338087E+00  -0.161438E+00  -0.324263E+00
  -0.357063E+00  -0.115313E+00  -0.315588E+00
  -0.376038E+00  -0.691875E-01  -0.306913E+00
  -0.395012E+00  -0.230625E-01  -0.298237E+00
  -0.177733E+00   0.000000E+00  -0.463667E+00
  -0.224200E+00   0.000000E+00  -0.440000E+00
  -0.270667E+00   0.000000E+00  -0.416333E+00
  -0.324263E+00  -0.161438E+00  -0.338087E+00
  -0.315588E+00  -0.115313E+00  -0.357063E+00
  -0.306913E+00  -0.691875E-01  -0.376038E+00
  -0.298237E+00  -0.230625E-01  -0.395012E+00
  -0.200975E+00  -0.159338E+00  -0.423400E+00
  -0.227525E+00  -0.113813E+00  -0.418000E+00
  -0.254075E+00  -0.682875E-01  -0.412600E+00
  -0.280625E+00  -0.227625E-01  -0.407200E+00
  -0.475500E+00  -0.135187E+00  -0.193125E-01
  -0.475500E+00  -0.965625E-01  -0.579375E-01
[...]
POINT_DATA  1138
SCALARS  vx_strength  double
LOOKUP_TABLE default
   0.000000E+00
   0.000000E+00
   0.000000E+00
   0.000000E+00
   0.000000E+00
   0.000000E+00
   0.000000E+00
   0.000000E+00
   0.000000E+00
   0.000000E+00
   0.000000E+00
   0.000000E+00
   0.000000E+00
   0.000000E+00
   0.000000E+00
   0.000000E+00
   0.000000E+00
   0.000000E+00
   0.000000E+00
   0.000000E+00
   0.000000E+00
   0.000000E+00
   0.000000E+00
   0.000000E+00
   0.000000E+00
   0.000000E+00
   0.000000E+00
   0.000000E+00
   0.000000E+00
   0.000000E+00
   0.000000E+00
   0.000000E+00
   0.000000E+00
   0.000000E+00
   0.000000E+00
   0.000000E+00
   0.000000E+00
   0.000000E+00
   0.000000E+00
   0.000000E+00
   0.000000E+00
   0.000000E+00
   0.000000E+00
   0.000000E+00
   0.000000E+00
   0.000000E+00
   0.000000E+00
   0.000000E+00
   0.000000E+00
   0.000000E+00
   0.000000E+00
   0.000000E+00
   0.000000E+00
   0.000000E+00
   0.000000E+00
   0.000000E+00
   0.000000E+00
   0.000000E+00
   0.000000E+00
   0.000000E+00
   0.000000E+00
   0.000000E+00
   0.000000E+00
   0.000000E+00
   0.000000E+00
   0.000000E+00
   0.000000E+00
   0.000000E+00
   0.000000E+00
   0.000000E+00
   0.000000E+00
   0.000000E+00
   0.000000E+00
   0.000000E+00
   0.000000E+00
   0.000000E+00
   0.000000E+00
   0.000000E+00
   0.000000E+00
   0.000000E+00
   0.000000E+00
   0.000000E+00
   0.000000E+00
   0.000000E+00
   0.000000E+00
   0.000000E+00
   0.000000E+00
   0.000000E+00
   0.000000E+00
   0.000000E+00
   0.000000E+00
   0.000000E+00
   0.000000E+00
   0.000000E+00
   0.000000E+00
   0.000000E+00
   0.000000E+00
   0.000000E+00
   0.000000E+00
   0.000000E+00
   0.000000E+00
   0.000000E+00
   0.380165E-02
   0.380165E-02
   0.380165E-02
   0.494920E-02
   0.494920E-02
   0.494920E-02
   0.494920E-02
   0.619585E-02
   0.619585E-02
   0.619585E-02
   0.619585E-02
   0.191056E-02
   0.191056E-02
   0.191056E-02
   0.692381E-02
   0.692381E-02
   0.692381E-02
   0.692381E-02
   0.248770E-02
   0.248770E-02
   0.248770E-02
   0.248770E-02
   0.385892E-02
   0.385892E-02
   0.385892E-02
   0.371693E-02
   0.371693E-02
   0.371693E-02
   0.358159E-02
   0.358159E-02
   0.358159E-02
   0.358159E-02
   0.330245E-02
   0.330245E-02
   0.330245E-02
   0.426198E-02
   0.426198E-02
   0.426198E-02
   0.426198E-02
   0.365817E-02
   0.365817E-02
   0.365817E-02
   0.365817E-02
   0.149158E-01
   0.149158E-01
   0.149158E-01
   0.143375E-01
   0.143375E-01
   0.143375E-01
   0.355065E-02
   0.355065E-02
   0.355065E-02
   0.355065E-02
   0.251312E-02
   0.251312E-02
   0.251312E-02
   0.404738E-02
   0.404738E-02
   0.404738E-02
   0.404738E-02
   0.383101E-02
   0.383101E-02
   0.383101E-02
   0.218452E-02
   0.218452E-02
   0.218452E-02
   0.697127E-02
   0.697127E-02
   0.697127E-02
   0.697127E-02
   0.140305E-01
   0.140305E-01
   0.140305E-01
   0.389880E-02
   0.389880E-02
   0.389880E-02
   0.389880E-02
   0.360063E-02
   0.360063E-02
   0.360063E-02
   0.360063E-02
   0.484710E-03
   0.484710E-03
   0.484710E-03
   0.414311E-02
   0.414311E-02
   0.414311E-02
   0.414311E-02
   0.783623E-05
   0.783623E-05
   0.783623E-05
   0.394273E-02
   0.394273E-02
   0.394273E-02
   0.394273E-02
   0.691084E-04
   0.691084E-04
   0.691084E-04
   0.680612E-02
   0.680612E-02
   0.680612E-02
   0.680612E-02
   0.343861E-02
   0.343861E-02
   0.343861E-02
   0.343861E-02
   0.186152E-02
   0.186152E-02
   0.186152E-02
   0.186152E-02
   0.184517E-02
   0.184517E-02
   0.184517E-02
   0.184517E-02
   0.369868E-02
   0.369868E-02
   0.369868E-02
   0.685299E-05
   0.685299E-05
   0.685299E-05
   0.133593E-03
   0.133593E-03
   0.133593E-03
   0.151759E-01
   0.151759E-01
   0.151759E-01
   0.198467E-02
   0.198467E-02
   0.198467E-02
   0.198467E-02
   0.169353E-02
   0.169353E-02
   0.169353E-02
   0.169353E-02
   0.351925E-02
   0.351925E-02
   0.351925E-02
   0.351925E-02
   0.352812E-02
   0.352812E-02
   0.352812E-02
   0.352812E-02
   0.150337E-01
   0.150337E-01
   0.150337E-01
   0.251566E-02
   0.251566E-02
   0.251566E-02
   0.444798E-04
   0.444798E-04
   0.444798E-04
   0.396478E-02
   0.396478E-02
   0.396478E-02
   0.396478E-02
   0.429712E-02
   0.429712E-02
   0.429712E-02
   0.429712E-02
   0.576723E-05
   0.576723E-05
   0.576723E-05
   0.133623E-01
   0.133623E-01
   0.133623E-01
   0.145182E-01
   0.145182E-01
   0.145182E-01
   0.328165E-02
   0.328165E-02
   0.328165E-02
   0.328165E-02
   0.364882E-02
   0.364882E-02
   0.364882E-02
   0.364882E-02
   0.384768E-02
   0.384768E-02
   0.384768E-02
   0.183677E-02
   0.183677E-02
   0.183677E-02
   0.183677E-02
   0.227608E-04
   0.227608E-04
   0.227608E-04
   0.151177E-01
   0.151177E-01
   0.151177E-01
   0.213836E-02
   0.213836E-02
   0.213836E-02
   0.127262E-02
   0.127262E-02
   0.127262E-02
   0.127262E-02
   0.327167E-02
   0.327167E-02
   0.327167E-02
   0.693264E-02
   0.693264E-02
   0.693264E-02
   0.693264E-02
   0.188896E-02
   0.188896E-02
   0.188896E-02
   0.254932E-02
   0.254932E-02
   0.254932E-02
   0.254932E-02
   0.103825E-03
   0.103825E-03
   0.103825E-03
   0.330486E-02
   0.330486E-02
   0.330486E-02
   0.330486E-02
   0.711733E-02
   0.711733E-02
   0.711733E-02
   0.711733E-02
   0.140777E-01
   0.140777E-01
   0.140777E-01
   0.350294E-02
   0.350294E-02
   0.350294E-02
   0.350294E-02
   0.318772E-02
   0.318772E-02
   0.318772E-02
   0.318772E-02
   0.385751E-02
   0.385751E-02
   0.385751E-02
   0.425132E-02
   0.425132E-02
   0.425132E-02
   0.425132E-02
   0.335741E-02
   0.335741E-02
   0.335741E-02
   0.142895E-01
   0.142895E-01
   0.142895E-01
   0.244611E-02
   0.244611E-02
   0.244611E-02
   0.355067E-02
   0.355067E-02
   0.355067E-02
   0.355067E-02
   0.189702E-04
   0.189702E-04
   0.189702E-04
   0.306236E-05
   0.306236E-05
   0.306236E-05
   0.331811E-04
   0.331811E-04
   0.331811E-04
   0.152181E-01
   0.152181E-01
   0.152181E-01
   0.769660E-04
   0.769660E-04
   0.769660E-04
   0.131756E-02
   0.131756E-02
   0.131756E-02
   0.131756E-02
   0.152693E-01
   0.152693E-01
   0.152693E-01
   0.149241E-02
   0.149241E-02
   0.149241E-02
   0.149241E-02
   0.154583E-01
   0.154583E-01
   0.154583E-01
   0.200457E-02
   0.200457E-02
   0.200457E-02
   0.955199E-03
   0.955199E-03
   0.955199E-03
   0.955199E-03
   0.184582E-02
   0.184582E-02
   0.184582E-02
   0.184582E-02
   0.383489E-02
   0.383489E-02
   0.383489E-02
   0.140696E-04
   0.140696E-04
   0.140696E-04
   0.140764E-02
   0.140764E-02
   0.140764E-02
   0.140764E-02
   0.145352E-01
   0.145352E-01
   0.145352E-01
   0.212089E-02
   0.212089E-02
   0.212089E-02
   0.331723E-02
   0.331723E-02
   0.331723E-02
   0.406534E-02
   0.406534E-02
   0.406534E-02
   0.406534E-02
   0.379357E-02
   0.379357E-02
   0.379357E-02
   0.336000E-02
   0.336000E-02
   0.336000E-02
   0.146220E-01
   0.146220E-01
   0.146220E-01
   0.155336E-01
   0.155336E-01
   0.155336E-01
   0.299509E-02
   0.299509E-02
   0.299509E-02
   0.299509E-02
   0.142357E-02
   0.142357E-02
   0.142357E-02
   0.404283E-02
   0.404283E-02
   0.404283E-02
   0.404283E-02
   0.697769E-02
   0.697769E-02
   0.697769E-02
   0.697769E-02
   0.375451E-02
   0.375451E-02
   0.375451E-02
   0.217074E-02
   0.217074E-02
   0.217074E-02
   0.140227E-01
   0.140227E-01
   0.140227E-01
   0.389528E-02
   0.389528E-02
   0.389528E-02
   0.389528E-02
   0.368908E-02
   0.368908E-02
   0.368908E-02
   0.368908E-02
   0.372883E-02
   0.372883E-02
   0.372883E-02
   0.693378E-02
   0.693378E-02
   0.693378E-02
   0.693378E-02
   0.206695E-02
   0.206695E-02
   0.206695E-02
   0.143639E-01
   0.143639E-01
   0.143639E-01
   0.208749E-02
   0.208749E-02
   0.208749E-02
   0.208749E-02
   0.306067E-02
   0.306067E-02
   0.306067E-02
   0.379124E-02
   0.379124E-02
   0.379124E-02
   0.100830E-04
   0.100830E-04
   0.100830E-04
   0.156915E-04
   0.156915E-04
   0.156915E-04
   0.153957E-01
   0.153957E-01
   0.153957E-01
   0.290991E-04
   0.290991E-04
   0.290991E-04
   0.155061E-01
   0.155061E-01
   0.155061E-01
   0.349826E-02
   0.349826E-02
   0.349826E-02
   0.349826E-02
   0.140610E-01
   0.140610E-01
   0.140610E-01
   0.240343E-02
   0.240343E-02
   0.240343E-02
   0.430610E-02
   0.430610E-02
   0.430610E-02
   0.430610E-02
   0.395779E-02
   0.395779E-02
   0.395779E-02
   0.395779E-02
   0.481159E-04
   0.481159E-04
   0.481159E-04
   0.155813E-01
   0.155813E-01
   0.155813E-01
   0.152005E-02
   0.152005E-02
   0.152005E-02
   0.284421E-02
   0.284421E-02
   0.284421E-02
   0.284421E-02
   0.324322E-02
   0.324322E-02
   0.324322E-02
   0.324322E-02
   0.133929E-01
   0.133929E-01
   0.133929E-01
   0.360531E-02
   0.360531E-02
   0.360531E-02
   0.360531E-02
   0.404510E-02
   0.404510E-02
   0.404510E-02
   0.404510E-02
   0.331886E-02
   0.331886E-02
   0.331886E-02
   0.334405E-02
   0.334405E-02
   0.334405E-02
   0.306220E-02
   0.306220E-02
   0.306220E-02
   0.306220E-02
   0.146291E-01
   0.146291E-01
   0.146291E-01
   0.138659E-02
   0.138659E-02
   0.138659E-02
   0.350939E-02
   0.350939E-02
   0.350939E-02
   0.350939E-02
   0.150381E-01
   0.150381E-01
   0.150381E-01
   0.354642E-02
   0.354642E-02
   0.354642E-02
   0.354642E-02
   0.252114E-02
   0.252114E-02
   0.252114E-02
   0.105449E-02
   0.105449E-02
   0.105449E-02
   0.105449E-02
   0.140952E-01
   0.140952E-01
   0.140952E-01
   0.206612E-02
   0.206612E-02
   0.206612E-02
   0.816171E-04
   0.816171E-04
   0.816171E-04
   0.154022E-01
   0.154022E-01
   0.154022E-01
   0.399476E-02
   0.399476E-02
   0.399476E-02
   0.399476E-02
   0.402414E-02
   0.402414E-02
   0.402414E-02
   0.402414E-02
   0.384229E-04
   0.384229E-04
   0.384229E-04
   0.473405E-04
   0.473405E-04
   0.473405E-04
   0.683622E-02
   0.683622E-02
   0.683622E-02
   0.683622E-02
   0.673771E-02
   0.673771E-02
   0.673771E-02
   0.673771E-02
   0.191572E-02
   0.191572E-02
   0.191572E-02
   0.670705E-02
   0.670705E-02
   0.670705E-02
   0.670705E-02
   0.254543E-02
   0.254543E-02
   0.254543E-02
   0.254543E-02
   0.714251E-02
   0.714251E-02
   0.714251E-02
   0.714251E-02
   0.367774E-02
   0.367774E-02
   0.367774E-02
   0.367774E-02
   0.280966E-02
   0.280966E-02
   0.280966E-02
   0.711462E-02
   0.711462E-02
   0.711462E-02
   0.711462E-02
   0.331334E-02
   0.331334E-02
   0.331334E-02
   0.331334E-02
   0.989666E-04
   0.989666E-04
   0.989666E-04
   0.336493E-02
   0.336493E-02
   0.336493E-02
   0.336493E-02
   0.140843E-01
   0.140843E-01
   0.140843E-01
   0.314222E-02
   0.314222E-02
   0.314222E-02
   0.314222E-02
   0.390920E-02
   0.390920E-02
   0.390920E-02
   0.390920E-02
   0.142477E-01
   0.142477E-01
   0.142477E-01
   0.365189E-02
   0.365189E-02
   0.365189E-02
   0.365189E-02
   0.718000E-02
   0.718000E-02
   0.718000E-02
   0.718000E-02
   0.279844E-02
   0.279844E-02
   0.279844E-02
   0.360062E-02
   0.360062E-02
   0.360062E-02
   0.360062E-02
   0.690205E-02
   0.690205E-02
   0.690205E-02
   0.690205E-02
   0.379445E-02
   0.379445E-02
   0.379445E-02
   0.209777E-02
   0.209777E-02
   0.209777E-02
   0.198092E-02
   0.198092E-02
   0.198092E-02
   0.198092E-02
   0.144319E-01
   0.144319E-01
   0.144319E-01
   0.297966E-02
   0.297966E-02
   0.297966E-02
   0.317407E-02
   0.317407E-02
   0.317407E-02
   0.317407E-02
   0.133935E-01
   0.133935E-01
   0.133935E-01
   0.339664E-02
   0.339664E-02
   0.339664E-02
   0.339664E-02
   0.472574E-04
   0.472574E-04
   0.472574E-04
   0.705383E-02
   0.705383E-02
   0.705383E-02
   0.705383E-02
   0.301197E-02
   0.301197E-02
   0.301197E-02
   0.301197E-02
   0.679897E-02
   0.679897E-02
   0.679897E-02
   0.679897E-02
   0.197114E-02
   0.197114E-02
   0.197114E-02
   0.265547E-02
   0.265547E-02
   0.265547E-02
   0.265547E-02
   0.372501E-02
   0.372501E-02
   0.372501E-02
   0.372501E-02
   0.718397E-02
   0.718397E-02
   0.718397E-02
   0.718397E-02
   0.280575E-02
   0.280575E-02
   0.280575E-02
   0.344954E-02
   0.344954E-02
   0.344954E-02
   0.344954E-02
   0.350566E-02
   0.350566E-02
   0.350566E-02
   0.350566E-02
   0.103574E-04
   0.103574E-04
   0.103574E-04
   0.867775E-05
   0.867775E-05
   0.867775E-05
   0.403445E-02
   0.403445E-02
   0.403445E-02
   0.403445E-02
   0.404874E-02
   0.404874E-02
   0.404874E-02
   0.404874E-02
   0.152614E-01
   0.152614E-01
   0.152614E-01
   0.132295E-02
   0.132295E-02
   0.132295E-02
   0.132295E-02
   0.148854E-02
   0.148854E-02
   0.148854E-02
   0.148854E-02
   0.733050E-04
   0.733050E-04
   0.733050E-04
   0.198447E-02
   0.198447E-02
   0.198447E-02
   0.154620E-01
   0.154620E-01
   0.154620E-01
   0.949470E-03
   0.949470E-03
   0.949470E-03
   0.949470E-03
   0.143985E-01
   0.143985E-01
   0.143985E-01
   0.157456E-02
   0.157456E-02
   0.157456E-02
   0.252071E-02
   0.252071E-02
   0.252071E-02
   0.150518E-01
   0.150518E-01
   0.150518E-01
   0.358246E-02
   0.358246E-02
   0.358246E-02
   0.358246E-02
   0.434198E-02
   0.434198E-02
   0.434198E-02
   0.434198E-02
   0.352937E-02
   0.352937E-02
   0.352937E-02
   0.354955E-02
   0.354955E-02
   0.354955E-02
   0.359683E-02
   0.359683E-02
   0.359683E-02
   0.359683E-02
   0.145250E-01
   0.145250E-01
   0.145250E-01
   0.323117E-02
   0.323117E-02
   0.323117E-02
   0.323117E-02
   0.140095E-01
   0.140095E-01
   0.140095E-01
   0.353319E-02
   0.353319E-02
   0.353319E-02
   0.353319E-02
   0.242019E-02
   0.242019E-02
   0.242019E-02
   0.120790E-04
   0.120790E-04
   0.120790E-04
   0.429056E-02
   0.429056E-02
   0.429056E-02
   0.429056E-02
   0.368360E-02
   0.368360E-02
   0.368360E-02
   0.368360E-02
   0.148037E-02
   0.148037E-02
   0.148037E-02
   0.155900E-01
   0.155900E-01
   0.155900E-01
   0.283436E-02
   0.283436E-02
   0.283436E-02
   0.283436E-02
   0.155032E-01
   0.155032E-01
   0.155032E-01
   0.321091E-04
   0.321091E-04
   0.321091E-04
   0.162442E-02
   0.162442E-02
   0.162442E-02
   0.162442E-02
   0.152080E-01
   0.152080E-01
   0.152080E-01
   0.184895E-02
   0.184895E-02
   0.184895E-02
   0.184895E-02
   0.960423E-04
   0.960423E-04
   0.960423E-04
   0.346660E-05
   0.346660E-05
   0.346660E-05
   0.353281E-02
   0.353281E-02
   0.353281E-02
   0.179911E-02
   0.179911E-02
   0.179911E-02
   0.179911E-02
   0.179043E-02
   0.179043E-02
   0.179043E-02
   0.179043E-02
   0.142355E-01
   0.142355E-01
   0.142355E-01
   0.392408E-02
   0.392408E-02
   0.392408E-02
   0.392408E-02
   0.375906E-02
   0.375906E-02
   0.375906E-02
   0.375906E-02
   0.280557E-02
   0.280557E-02
   0.280557E-02
   0.718515E-02
   0.718515E-02
   0.718515E-02
   0.718515E-02
   0.360792E-02
   0.360792E-02
   0.360792E-02
   0.360792E-02
   0.146911E-01
   0.146911E-01
   0.146911E-01
   0.300378E-02
   0.300378E-02
   0.300378E-02
   0.196061E-02
   0.196061E-02
   0.196061E-02
   0.196061E-02
   0.719309E-02
   0.719309E-02
   0.719309E-02
   0.719309E-02
   0.279503E-02
   0.279503E-02
   0.279503E-02
   0.249558E-02
   0.249558E-02
   0.249558E-02
   0.360246E-02
   0.360246E-02
   0.360246E-02
   0.360246E-02
   0.355581E-02
   0.355581E-02
   0.355581E-02
   0.433013E-02
   0.433013E-02
   0.433013E-02
   0.433013E-02
   0.151670E-01
   0.151670E-01
   0.151670E-01
   0.208046E-02
   0.208046E-02
   0.208046E-02
   0.132183E-02
   0.132183E-02
   0.132183E-02
   0.132183E-02
   0.238636E-04
   0.238636E-04
   0.238636E-04
   0.181813E-02
   0.181813E-02
   0.181813E-02
   0.181813E-02
   0.357186E-02
   0.357186E-02
   0.357186E-02
   0.140943E-01
   0.140943E-01
   0.140943E-01
   0.205416E-02
   0.205416E-02
   0.205416E-02
   0.105542E-02
   0.105542E-02
   0.105542E-02
   0.105542E-02
   0.154039E-01
   0.154039E-01
   0.154039E-01
   0.840041E-04
   0.840041E-04
   0.840041E-04
   0.152014E-01
   0.152014E-01
   0.152014E-01
   0.616886E-04
   0.616886E-04
   0.616886E-04
   0.236955E-04
   0.236955E-04
   0.236955E-04
   0.329854E-05
   0.329854E-05
   0.329854E-05
   0.155002E-01
   0.155002E-01
   0.155002E-01
   0.134887E-02
   0.134887E-02
   0.134887E-02
   0.301392E-02
   0.301392E-02
   0.301392E-02
   0.301392E-02
   0.413211E-02
   0.413211E-02
   0.413211E-02
   0.413211E-02
   0.274853E-02
   0.274853E-02
   0.274853E-02
   0.343850E-02
   0.343850E-02
   0.343850E-02
   0.134105E-01
   0.134105E-01
   0.134105E-01
   0.327259E-02
   0.327259E-02
   0.327259E-02
   0.327259E-02
   0.313982E-02
   0.313982E-02
   0.313982E-02
   0.313982E-02
   0.301392E-02
   0.301392E-02
   0.301392E-02
   0.301392E-02
   0.705263E-02
   0.705263E-02
   0.705263E-02
   0.705263E-02
   0.446653E-04
   0.446653E-04
   0.446653E-04
   0.683870E-02
   0.683870E-02
   0.683870E-02
   0.683870E-02
   0.361064E-02
   0.361064E-02
   0.361064E-02
   0.361064E-02
   0.149722E-02
   0.149722E-02
   0.149722E-02
   0.149722E-02
   0.145289E-01
   0.145289E-01
   0.145289E-01
   0.208276E-02
   0.208276E-02
   0.208276E-02
   0.638972E-05
   0.638972E-05
   0.638972E-05
   0.357232E-02
   0.357232E-02
   0.357232E-02
   0.179476E-02
   0.179476E-02
   0.179476E-02
   0.179476E-02
   0.321156E-02
   0.321156E-02
   0.321156E-02
   0.321156E-02
   0.357189E-02
   0.357189E-02
   0.357189E-02
   0.357189E-02
   0.369389E-02
   0.369389E-02
   0.369389E-02
   0.369389E-02
   0.429225E-02
   0.429225E-02
   0.429225E-02
   0.429225E-02
   0.144450E-01
   0.144450E-01
   0.144450E-01
   0.155805E-02
   0.155805E-02
   0.155805E-02
   0.316413E-04
   0.316413E-04
   0.316413E-04
   0.153306E-01
   0.153306E-01
   0.153306E-01
   0.129252E-04
   0.129252E-04
   0.129252E-04
   0.345372E-02
   0.345372E-02
   0.345372E-02
   0.484134E-03
   0.484134E-03
   0.484134E-03
   0.314550E-02
   0.314550E-02
   0.314550E-02
   0.314550E-02
   0.626996E-02
   0.626996E-02
   0.626996E-02
   0.626996E-02
   0.362999E-02
   0.362999E-02
   0.362999E-02
   0.362999E-02
   0.457955E-02
   0.457955E-02
   0.457955E-02
   0.457955E-02
   0.147197E-01
   0.147197E-01
   0.147197E-01
   0.187368E-02
   0.187368E-02
   0.187368E-02
   0.187368E-02
   0.300171E-02
   0.300171E-02
   0.300171E-02
   0.722668E-02
   0.722668E-02
   0.722668E-02
   0.722668E-02
   0.275989E-02
   0.275989E-02
   0.275989E-02
   0.133008E-02
   0.133008E-02
   0.133008E-02
   0.325880E-02
   0.325880E-02
   0.325880E-02

SCALARS  vx_core_radius  double
LOOKUP_TABLE default
   0.000000E+00
   0.000000E+00
   0.000000E+00
   0.000000E+00
   0.000000E+00
   0.000000E+00
   0.000000E+00
   0.000000E+00
   0.000000E+00
   0.000000E+00
   0.000000E+00
   0.000000E+00
   0.000000E+00
   0.000000E+00
   0.000000E+00
   0.000000E+00
   0.000000E+00
   0.000000E+00
   0.000000E+00
   0.000000E+00
   0.000000E+00
   0.000000E+00
   0.000000E+00
   0.000000E+00
   0.000000E+00
   0.000000E+00
   0.000000E+00
   0.000000E+00
   0.000000E+00
   0.000000E+00
   0.000000E+00