# vtk DataFile Version 2.0
This file was created by Fortran
ASCII
DATASET UNSTRUCTURED_GRID
POINTS  1138  DOUBLE
  -0.329000E+00   0.184400E+00  -0.328200E+00
  -0.426100E+00   0.182100E+00  -0.187800E+00
  -0.187800E+00   0.182100E+00  -0.426100E+00
  -0.326800E+00   0.328600E+00  -0.187600E+00
  -0.187600E+00   0.328600E+00  -0.326800E+00
  -0.404500E+00   0.000000E+00  -0.293900E+00
  -0.293900E+00   0.000000E+00  -0.404500E+00
  -0.475500E+00   0.000000E+00  -0.154500E+00
  -0.154500E+00   0.000000E+00  -0.475500E+00
  -0.182200E+00   0.428500E+00  -0.182200E+00
  -0.404500E+00   0.293900E+00   0.000000E+00
   0.000000E+00   0.293900E+00  -0.404500E+00
  -0.475500E+00   0.154500E+00   0.000000E+00
   0.000000E+00   0.154500E+00  -0.475500E+00
  -0.328600E+00  -0.184500E+00  -0.328600E+00
  -0.293900E+00   0.404500E+00   0.000000E+00
   0.000000E+00   0.404500E+00  -0.293900E+00
  -0.426100E+00  -0.182100E+00  -0.187700E+00
  -0.187700E+00  -0.182100E+00  -0.426100E+00
  -0.500000E+00   0.000000E+00   0.000000E+00
   0.000000E+00   0.000000E+00  -0.500000E+00
  -0.154500E+00   0.475500E+00   0.000000E+00
   0.000000E+00   0.475500E+00  -0.154500E+00
  -0.475500E+00  -0.154500E+00   0.000000E+00
   0.000000E+00  -0.154500E+00  -0.475500E+00
  -0.426100E+00   0.182100E+00   0.187800E+00
   0.187800E+00   0.182100E+00  -0.426100E+00
  -0.326800E+00  -0.328600E+00  -0.187600E+00
  -0.187600E+00  -0.328600E+00  -0.326800E+00
  -0.326800E+00   0.328600E+00   0.187600E+00
   0.187600E+00   0.328600E+00  -0.326800E+00
  -0.475500E+00   0.000000E+00   0.154500E+00
   0.154500E+00   0.000000E+00  -0.475500E+00
   0.000000E+00   0.500000E+00   0.000000E+00
  -0.182200E+00   0.428500E+00   0.182200E+00
  -0.404500E+00  -0.293900E+00   0.000000E+00
   0.182200E+00   0.428500E+00  -0.182200E+00
   0.000000E+00  -0.293900E+00  -0.404500E+00
  -0.426100E+00  -0.182100E+00   0.187700E+00
   0.187700E+00  -0.182100E+00  -0.426100E+00
  -0.182200E+00  -0.428500E+00  -0.182200E+00
   0.000000E+00   0.475500E+00   0.154500E+00
   0.154500E+00   0.475500E+00   0.000000E+00
  -0.404500E+00   0.000000E+00   0.293900E+00
   0.293900E+00   0.000000E+00  -0.404500E+00
  -0.328200E+00   0.184400E+00   0.329000E+00
   0.329000E+00   0.184400E+00  -0.328200E+00
  -0.293900E+00  -0.404500E+00   0.000000E+00
   0.000000E+00  -0.404500E+00  -0.293900E+00
  -0.187600E+00   0.328600E+00   0.326800E+00
   0.326800E+00   0.328600E+00  -0.187600E+00
  -0.326800E+00  -0.328600E+00   0.187600E+00
   0.187600E+00  -0.328600E+00  -0.326800E+00
   0.000000E+00   0.404500E+00   0.293900E+00
   0.293900E+00   0.404500E+00   0.000000E+00
  -0.328600E+00  -0.184500E+00   0.328600E+00
   0.328600E+00  -0.184500E+00  -0.328600E+00
  -0.293900E+00   0.000000E+00   0.404500E+00
   0.404500E+00   0.000000E+00  -0.293900E+00
  -0.154500E+00  -0.475500E+00   0.000000E+00
   0.000000E+00  -0.475500E+00  -0.154500E+00
   0.182200E+00   0.428500E+00   0.182200E+00
  -0.187800E+00   0.182100E+00   0.426100E+00
   0.426100E+00   0.182100E+00  -0.187800E+00
   0.000000E+00   0.293900E+00   0.404500E+00
  -0.182200E+00  -0.428500E+00   0.182200E+00
   0.404500E+00   0.293900E+00   0.000000E+00
   0.182200E+00  -0.428500E+00  -0.182200E+00
   0.000000E+00  -0.500000E+00   0.000000E+00
  -0.154500E+00   0.000000E+00   0.475500E+00
   0.475500E+00   0.000000E+00  -0.154500E+00
  -0.187600E+00  -0.328600E+00   0.326800E+00
   0.326800E+00  -0.328600E+00  -0.187600E+00
   0.187600E+00   0.328600E+00   0.326800E+00
   0.326800E+00   0.328600E+00   0.187600E+00
  -0.187700E+00  -0.182100E+00   0.426100E+00
   0.426100E+00  -0.182100E+00  -0.187700E+00
   0.000000E+00   0.154500E+00   0.475500E+00
   0.475500E+00   0.154500E+00   0.000000E+00
   0.000000E+00  -0.475500E+00   0.154500E+00
   0.154500E+00  -0.475500E+00   0.000000E+00
   0.000000E+00   0.000000E+00   0.500000E+00
   0.500000E+00   0.000000E+00   0.000000E+00
   0.187800E+00   0.182100E+00   0.426100E+00
   0.426100E+00   0.182100E+00   0.187800E+00
   0.000000E+00  -0.404500E+00   0.293900E+00
   0.293900E+00  -0.404500E+00   0.000000E+00
   0.329000E+00   0.184400E+00   0.328200E+00
   0.000000E+00  -0.154500E+00   0.475500E+00
   0.475500E+00  -0.154500E+00   0.000000E+00
   0.000000E+00  -0.293900E+00   0.404500E+00
   0.404500E+00  -0.293900E+00   0.000000E+00
   0.182200E+00  -0.428500E+00   0.182200E+00
   0.154500E+00   0.000000E+00   0.475500E+00
   0.475500E+00   0.000000E+00   0.154500E+00
   0.293900E+00   0.000000E+00   0.404500E+00
   0.404500E+00   0.000000E+00   0.293900E+00
   0.187600E+00  -0.328600E+00   0.326800E+00
   0.326800E+00  -0.328600E+00   0.187600E+00
   0.187700E+00  -0.182100E+00   0.426100E+00
   0.426100E+00  -0.182100E+00   0.187700E+00
   0.328600E+00  -0.184500E+00   0.328600E+00
  -0.409917E+00   0.182483E+00  -0.211200E+00
  -0.377550E+00   0.183250E+00  -0.258000E+00
  -0.345183E+00   0.184017E+00  -0.304800E+00
  -0.395063E+00   0.230500E-01  -0.298187E+00
  -0.376188E+00   0.691500E-01  -0.306762E+00
  -0.357313E+00   0.115250E+00  -0.315337E+00
  -0.338438E+00   0.161350E+00  -0.323912E+00
  -0.298287E+00   0.230500E-01  -0.394962E+00
  -0.307063E+00   0.691500E-01  -0.375887E+00
  -0.315837E+00   0.115250E+00  -0.356812E+00
  -0.324612E+00   0.161350E+00  -0.337737E+00
  -0.211333E+00   0.182483E+00  -0.409783E+00
  -0.258400E+00   0.183250E+00  -0.377150E+00
  -0.305467E+00   0.184017E+00  -0.344517E+00
  -0.327075E+00   0.310575E+00  -0.205175E+00
  -0.327625E+00   0.274525E+00  -0.240325E+00
  -0.328175E+00   0.238475E+00  -0.275475E+00
  -0.328725E+00   0.202425E+00  -0.310625E+00
  -0.205275E+00   0.310575E+00  -0.326975E+00
  -0.240625E+00   0.274525E+00  -0.327325E+00
  -0.275975E+00   0.238475E+00  -0.327675E+00
  -0.311325E+00   0.202425E+00  -0.328025E+00
  -0.467267E+00   0.159100E+00  -0.313000E-01
  -0.450800E+00   0.168300E+00  -0.939000E-01
  -0.434333E+00   0.177500E+00  -0.156500E+00
  -0.467267E+00   0.303500E-01  -0.160050E+00
  -0.450800E+00   0.910500E-01  -0.171150E+00
  -0.434333E+00   0.151750E+00  -0.182250E+00
  -0.407200E+00   0.227625E-01  -0.280637E+00
  -0.412600E+00   0.682875E-01  -0.254112E+00
  -0.418000E+00   0.113813E+00  -0.227587E+00
  -0.423400E+00   0.159337E+00  -0.201062E+00
  -0.343350E+00   0.304183E+00  -0.187633E+00
  -0.376450E+00   0.255350E+00  -0.187700E+00
  -0.409550E+00   0.206517E+00  -0.187767E+00
  -0.407200E+00   0.279925E+00  -0.234750E-01
  -0.412600E+00   0.251975E+00  -0.704250E-01
  -0.418000E+00   0.224025E+00  -0.117375E+00
  -0.423400E+00   0.196075E+00  -0.164325E+00
  -0.280637E+00   0.227625E-01  -0.407200E+00
  -0.254112E+00   0.682875E-01  -0.412600E+00
  -0.227587E+00   0.113813E+00  -0.418000E+00
  -0.201062E+00   0.159337E+00  -0.423400E+00
  -0.160050E+00   0.303500E-01  -0.467267E+00
  -0.171150E+00   0.910500E-01  -0.450800E+00
  -0.182250E+00   0.151750E+00  -0.434333E+00
  -0.187633E+00   0.304183E+00  -0.343350E+00
  -0.187700E+00   0.255350E+00  -0.376450E+00
  -0.187767E+00   0.206517E+00  -0.409550E+00
  -0.234750E-01   0.279925E+00  -0.407200E+00
  -0.704250E-01   0.251975E+00  -0.412600E+00
  -0.117375E+00   0.224025E+00  -0.418000E+00
  -0.164325E+00   0.196075E+00  -0.423400E+00
  -0.313000E-01   0.159100E+00  -0.467267E+00
  -0.939000E-01   0.168300E+00  -0.450800E+00
  -0.156500E+00   0.177500E+00  -0.434333E+00
  -0.394788E+00   0.298237E+00  -0.234500E-01
  -0.375362E+00   0.306912E+00  -0.703500E-01
  -0.355938E+00   0.315588E+00  -0.117250E+00
  -0.336512E+00   0.324263E+00  -0.164150E+00
  -0.210800E+00   0.328600E+00  -0.303600E+00
  -0.257200E+00   0.328600E+00  -0.257200E+00
  -0.303600E+00   0.328600E+00  -0.210800E+00
  -0.206300E+00   0.411850E+00  -0.183100E+00
  -0.254500E+00   0.378550E+00  -0.184900E+00
  -0.302700E+00   0.345250E+00  -0.186700E+00
  -0.298013E+00   0.395013E+00  -0.234500E-01
  -0.306237E+00   0.376038E+00  -0.703500E-01
  -0.314462E+00   0.357063E+00  -0.117250E+00
  -0.322688E+00   0.338088E+00  -0.164150E+00
  -0.183100E+00   0.411850E+00  -0.206300E+00
  -0.184900E+00   0.378550E+00  -0.254500E+00
  -0.186700E+00   0.345250E+00  -0.302700E+00
  -0.234500E-01   0.298237E+00  -0.394788E+00
  -0.703500E-01   0.306912E+00  -0.375362E+00
  -0.117250E+00   0.315588E+00  -0.355938E+00
  -0.164150E+00   0.324263E+00  -0.336512E+00
  -0.234500E-01   0.395013E+00  -0.298013E+00
  -0.703500E-01   0.376038E+00  -0.306237E+00
  -0.117250E+00   0.357063E+00  -0.314462E+00
  -0.164150E+00   0.338088E+00  -0.322688E+00
  -0.312333E+00   0.000000E+00  -0.386067E+00
  -0.349200E+00   0.000000E+00  -0.349200E+00
  -0.386067E+00   0.000000E+00  -0.312333E+00
  -0.423400E+00  -0.159338E+00  -0.200975E+00
  -0.418000E+00  -0.113813E+00  -0.227525E+00
  -0.412600E+00  -0.682875E-01  -0.254075E+00
  -0.407200E+00  -0.227625E-01  -0.280625E+00
  -0.463667E+00   0.000000E+00  -0.177733E+00
  -0.440000E+00   0.000000E+00  -0.224200E+00
  -0.416333E+00   0.000000E+00  -0.270667E+00
  -0.338087E+00  -0.161438E+00  -0.324263E+00
  -0.357063E+00  -0.115313E+00  -0.315588E+00
  -0.376038E+00  -0.691875E-01  -0.306913E+00
  -0.395012E+00  -0.230625E-01  -0.298237E+00
  -0.177733E+00   0.000000E+00  -0.463667E+00
  -0.224200E+00   0.000000E+00  -0.440000E+00
  -0.270667E+00   0.000000E+00  -0.416333E+00
  -0.324263E+00  -0.161438E+00  -0.338087E+00
  -0.315588E+00  -0.115313E+00  -0.357063E+00
  -0.306913E+00  -0.691875E-01  -0.376038E+00
  -0.298237E+00  -0.230625E-01  -0.395012E+00
  -0.200975E+00  -0.159338E+00  -0.423400E+00
  -0.227525E+00  -0.113813E+00  -0.418000E+00
  -0.254075E+00  -0.682875E-01  -0.412600E+00
  -0.280625E+00  -0.227625E-01  -0.407200E+00
  -0.475500E+00  -0.135187E+00  -0.193125E-01
  -0.475500E+00  -0.965625E-01  -0.579375E-01
[...]
POINT_DATA  1138
SCALARS  vx_strength  double
LOOKUP_TABLE default
   0.000000E+00
   0.000000E+00
   0.000000E+00
   0.000000E+00
   0.000000E+00
   0.000000E+00
   0.000000E+00
   0.000000E+00
   0.000000E+00
   0.000000E+00
   0.000000E+00
   0.000000E+00
   0.000000E+00
   0.000000E+00
   0.000000E+00
   0.000000E+00
   0.000000E+00
   0.000000E+00
   0.000000E+00
   0.000000E+00
   0.000000E+00
   0.000000E+00
   0.000000E+00
   0.000000E+00
   0.000000E+00
   0.000000E+00
   0.000000E+00
   0.000000E+00
   0.000000E+00
   0.000000E+00
   0.000000E+00
   0.000000E+00
   0.000000E+00
   0.000000E+00
   0.000000E+00
   0.000000E+00
   0.000000E+00
   0.000000E+00
   0.000000E+00
   0.000000E+00
   0.000000E+00
   0.000000E+00
   0.000000E+00
   0.000000E+00
   0.000000E+00
   0.000000E+00
   0.000000E+00
   0.000000E+00
   0.000000E+00
   0.000000E+00
   0.000000E+00
   0.000000E+00
   0.000000E+00
   0.000000E+00
   0.000000E+00
   0.000000E+00
   0.000000E+00
   0.000000E+00
   0.000000E+00
   0.000000E+00
   0.000000E+00
   0.000000E+00
   0.000000E+00
   0.000000E+00
   0.000000E+00
   0.000000E+00
   0.000000E+00
   0.000000E+00
   0.000000E+00
   0.000000E+00
   0.000000E+00
   0.000000E+00
   0.000000E+00
   0.000000E+00
   0.000000E+00
   0.000000E+00
   0.000000E+00
   0.000000E+00
   0.000000E+00
   0.000000E+00
   0.000000E+00
   0.000000E+00
   0.000000E+00
   0.000000E+00
   0.000000E+00
   0.000000E+00
   0.000000E+00
   0.000000E+00
   0.000000E+00
   0.000000E+00
   0.000000E+00
   0.000000E+00
   0.000000E+00
   0.000000E+00
   0.000000E+00
   0.000000E+00
   0.000000E+00
   0.000000E+00
   0.000000E+00
   0.000000E+00
   0.000000E+00
   0.000000E+00
   0.691134E-03
   0.691134E-03
   0.691134E-03
   0.630946E-03
   0.630946E-03
   0.630946E-03
   0.630946E-03
   0.119283E-02
   0.119283E-02
   0.119283E-02
   0.119283E-02
   0.356130E-04
   0.356130E-04
   0.356130E-04
   0.845807E-03
   0.845807E-03
   0.845807E-03
   0.845807E-03
   0.326457E-03
   0.326457E-03
   0.326457E-03
   0.326457E-03
   0.575372E-03
   0.575372E-03
   0.575372E-03
   0.576159E-03
   0.576159E-03
   0.576159E-03
   0.752936E-03
   0.752936E-03
   0.752936E-03
   0.752936E-03
   0.689030E-03
   0.689030E-03
   0.689030E-03
   0.818213E-03
   0.818213E-03
   0.818213E-03
   0.818213E-03
   0.222346E-03
   0.222346E-03
   0.222346E-03
   0.222346E-03
   0.186608E-02
   0.186608E-02
   0.186608E-02
   0.206300E-02
   0.206300E-02
   0.206300E-02
   0.102700E-02
   0.102700E-02
   0.102700E-02
   0.102700E-02
   0.116205E-02
   0.116205E-02
   0.116205E-02
   0.648867E-03
   0.648867E-03
   0.648867E-03
   0.648867E-03
   0.464846E-03
   0.464846E-03
   0.464846E-03
   0.212849E-04
   0.212849E-04
   0.212849E-04
   0.119557E-02
   0.119557E-02
   0.119557E-02
   0.119557E-02
   0.201908E-02
   0.201908E-02
   0.201908E-02
   0.825317E-03
   0.825317E-03
   0.825317E-03
   0.825317E-03
   0.826407E-03
   0.826407E-03
   0.826407E-03
   0.826407E-03
   0.348288E-04
   0.348288E-04
   0.348288E-04
   0.786564E-03
   0.786564E-03
   0.786564E-03
   0.786564E-03
   0.971405E-05
   0.971405E-05
   0.971405E-05
   0.643194E-03
   0.643194E-03
   0.643194E-03
   0.643194E-03
   0.268657E-04
   0.268657E-04
   0.268657E-04
   0.114979E-02
   0.114979E-02
   0.114979E-02
   0.114979E-02
   0.203965E-03
   0.203965E-03
   0.203965E-03
   0.203965E-03
   0.401053E-03
   0.401053E-03
   0.401053E-03
   0.401053E-03
   0.394996E-03
   0.394996E-03
   0.394996E-03
   0.394996E-03
   0.560278E-03
   0.560278E-03
   0.560278E-03
   0.257054E-05
   0.257054E-05
   0.257054E-05
   0.344812E-04
   0.344812E-04
   0.344812E-04
   0.193459E-02
   0.193459E-02
   0.193459E-02
   0.761351E-03
   0.761351E-03
   0.761351E-03
   0.761351E-03
   0.755830E-03
   0.755830E-03
   0.755830E-03
   0.755830E-03
   0.170658E-03
   0.170658E-03
   0.170658E-03
   0.170658E-03
   0.103452E-02
   0.103452E-02
   0.103452E-02
   0.103452E-02
   0.200255E-02
   0.200255E-02
   0.200255E-02
   0.126276E-02
   0.126276E-02
   0.126276E-02
   0.756802E-06
   0.756802E-06
   0.756802E-06
   0.652338E-03
   0.652338E-03
   0.652338E-03
   0.652338E-03
   0.814571E-03
   0.814571E-03
   0.814571E-03
   0.814571E-03
   0.700886E-06
   0.700886E-06
   0.700886E-06
   0.180506E-02
   0.180506E-02
   0.180506E-02
   0.203667E-02
   0.203667E-02
   0.203667E-02
   0.168053E-02
   0.168053E-02
   0.168053E-02
   0.168053E-02
   0.148582E-02
   0.148582E-02
   0.148582E-02
   0.148582E-02
   0.573485E-03
   0.573485E-03
   0.573485E-03
   0.399374E-03
   0.399374E-03
   0.399374E-03
   0.399374E-03
   0.197335E-05
   0.197335E-05
   0.197335E-05
   0.163434E-02
   0.163434E-02
   0.163434E-02
   0.188396E-02
   0.188396E-02
   0.188396E-02
   0.136220E-02
   0.136220E-02
   0.136220E-02
   0.136220E-02
   0.683139E-03
   0.683139E-03
   0.683139E-03
   0.849546E-03
   0.849546E-03
   0.849546E-03
   0.849546E-03
   0.662836E-04
   0.662836E-04
   0.662836E-04
   0.274337E-03
   0.274337E-03
   0.274337E-03
   0.274337E-03
   0.827554E-06
   0.827554E-06
   0.827554E-06
   0.175198E-03
   0.175198E-03
   0.175198E-03
   0.175198E-03
   0.119131E-02
   0.119131E-02
   0.119131E-02
   0.119131E-02
   0.208627E-02
   0.208627E-02
   0.208627E-02
   0.146183E-02
   0.146183E-02
   0.146183E-02
   0.146183E-02
   0.165525E-02
   0.165525E-02
   0.165525E-02
   0.165525E-02
   0.572878E-03
   0.572878E-03
   0.572878E-03
   0.810665E-03
   0.810665E-03
   0.810665E-03
   0.810665E-03
   0.710491E-03
   0.710491E-03
   0.710491E-03
   0.210868E-02
   0.210868E-02
   0.210868E-02
   0.119486E-02
   0.119486E-02
   0.119486E-02
   0.102765E-02
   0.102765E-02
   0.102765E-02
   0.102765E-02
   0.150976E-05
   0.150976E-05
   0.150976E-05
   0.912565E-06
   0.912565E-06
   0.912565E-06
   0.461872E-05
   0.461872E-05
   0.461872E-05
   0.160447E-02
   0.160447E-02
   0.160447E-02
   0.429606E-05
   0.429606E-05
   0.429606E-05
   0.847736E-03
   0.847736E-03
   0.847736E-03
   0.847736E-03
   0.200757E-02
   0.200757E-02
   0.200757E-02
   0.838043E-03
   0.838043E-03
   0.838043E-03
   0.838043E-03
   0.160266E-02
   0.160266E-02
   0.160266E-02
   0.184570E-02
   0.184570E-02
   0.184570E-02
   0.133375E-02
   0.133375E-02
   0.133375E-02
   0.133375E-02
   0.399026E-03
   0.399026E-03
   0.399026E-03
   0.399026E-03
   0.571166E-03
   0.571166E-03
   0.571166E-03
   0.179206E-05
   0.179206E-05
   0.179206E-05
   0.136694E-02
   0.136694E-02
   0.136694E-02
   0.136694E-02
   0.203701E-02
   0.203701E-02
   0.203701E-02
   0.188659E-02
   0.188659E-02
   0.188659E-02
   0.680911E-03
   0.680911E-03
   0.680911E-03
   0.793141E-03
   0.793141E-03
   0.793141E-03
   0.793141E-03
   0.565591E-03
   0.565591E-03
   0.565591E-03
   0.714494E-03
   0.714494E-03
   0.714494E-03
   0.626498E-03
   0.626498E-03
   0.626498E-03
   0.562748E-03
   0.562748E-03
   0.562748E-03
   0.650543E-03
   0.650543E-03
   0.650543E-03
   0.650543E-03
   0.704465E-03
   0.704465E-03
   0.704465E-03
   0.650879E-03
   0.650879E-03
   0.650879E-03
   0.650879E-03
   0.119459E-02
   0.119459E-02
   0.119459E-02
   0.119459E-02
   0.437951E-03
   0.437951E-03
   0.437951E-03
   0.218129E-04
   0.218129E-04
   0.218129E-04
   0.202550E-02
   0.202550E-02
   0.202550E-02
   0.819883E-03
   0.819883E-03
   0.819883E-03
   0.819883E-03
   0.818349E-03
   0.818349E-03
   0.818349E-03
   0.818349E-03
   0.438730E-03
   0.438730E-03
   0.438730E-03
   0.844810E-03
   0.844810E-03
   0.844810E-03
   0.844810E-03
   0.222414E-04
   0.222414E-04
   0.222414E-04
   0.658081E-03
   0.658081E-03
   0.658081E-03
   0.799531E-03
   0.799531E-03
   0.799531E-03
   0.799531E-03
   0.110076E-02
   0.110076E-02
   0.110076E-02
   0.566781E-03
   0.566781E-03
   0.566781E-03
   0.159446E-05
   0.159446E-05
   0.159446E-05
   0.775521E-06
   0.775521E-06
   0.775521E-06
   0.563540E-03
   0.563540E-03
   0.563540E-03
   0.100959E-04
   0.100959E-04
   0.100959E-04
   0.161705E-02
   0.161705E-02
   0.161705E-02
   0.104390E-02
   0.104390E-02
   0.104390E-02
   0.104390E-02
   0.202869E-02
   0.202869E-02
   0.202869E-02
   0.127483E-02
   0.127483E-02
   0.127483E-02
   0.814387E-03
   0.814387E-03
   0.814387E-03
   0.814387E-03
   0.651720E-03
   0.651720E-03
   0.651720E-03
   0.651720E-03
   0.259614E-05
   0.259614E-05
   0.259614E-05
   0.558291E-03
   0.558291E-03
   0.558291E-03
   0.747726E-03
   0.747726E-03
   0.747726E-03
   0.645688E-03
   0.645688E-03
   0.645688E-03
   0.645688E-03
   0.168233E-02
   0.168233E-02
   0.168233E-02
   0.168233E-02
   0.179564E-02
   0.179564E-02
   0.179564E-02
   0.148489E-02
   0.148489E-02
   0.148489E-02
   0.148489E-02
   0.785263E-03
   0.785263E-03
   0.785263E-03
   0.785263E-03
   0.683537E-03
   0.683537E-03
   0.683537E-03
   0.713006E-03
   0.713006E-03
   0.713006E-03
   0.647293E-03
   0.647293E-03
   0.647293E-03
   0.647293E-03
   0.630345E-03
   0.630345E-03
   0.630345E-03
   0.702371E-03
   0.702371E-03
   0.702371E-03
   0.173699E-03
   0.173699E-03
   0.173699E-03
   0.173699E-03
   0.200223E-02
   0.200223E-02
   0.200223E-02
   0.103855E-02
   0.103855E-02
   0.103855E-02
   0.103855E-02
   0.126440E-02
   0.126440E-02
   0.126440E-02
   0.134365E-02
   0.134365E-02
   0.134365E-02
   0.134365E-02
   0.209384E-02
   0.209384E-02
   0.209384E-02
   0.184806E-02
   0.184806E-02
   0.184806E-02
   0.106499E-05
   0.106499E-05
   0.106499E-05
   0.558805E-03
   0.558805E-03
   0.558805E-03
   0.632647E-03
   0.632647E-03
   0.632647E-03
   0.632647E-03
   0.627254E-03
   0.627254E-03
   0.627254E-03
   0.627254E-03
   0.381181E-06
   0.381181E-06
   0.381181E-06
   0.816574E-06
   0.816574E-06
   0.816574E-06
   0.591145E-03
   0.591145E-03
   0.591145E-03
   0.591145E-03
   0.593983E-03
   0.593983E-03
   0.593983E-03
   0.593983E-03
   0.640205E-04
   0.640205E-04
   0.640205E-04
   0.115774E-02
   0.115774E-02
   0.115774E-02
   0.115774E-02
   0.279063E-03
   0.279063E-03
   0.279063E-03
   0.279063E-03
   0.515351E-03
   0.515351E-03
   0.515351E-03
   0.515351E-03
   0.550020E-03
   0.550020E-03
   0.550020E-03
   0.550020E-03
   0.499657E-03
   0.499657E-03
   0.499657E-03
   0.119219E-02
   0.119219E-02
   0.119219E-02
   0.119219E-02
   0.174134E-03
   0.174134E-03
   0.174134E-03
   0.174134E-03
   0.574161E-06
   0.574161E-06
   0.574161E-06
   0.145675E-02
   0.145675E-02
   0.145675E-02
   0.145675E-02
   0.208931E-02
   0.208931E-02
   0.208931E-02
   0.165028E-02
   0.165028E-02
   0.165028E-02
   0.165028E-02
   0.820096E-03
   0.820096E-03
   0.820096E-03
   0.820096E-03
   0.210484E-02
   0.210484E-02
   0.210484E-02
   0.820200E-03
   0.820200E-03
   0.820200E-03
   0.820200E-03
   0.622295E-03
   0.622295E-03
   0.622295E-03
   0.622295E-03
   0.539897E-03
   0.539897E-03
   0.539897E-03
   0.580064E-03
   0.580064E-03
   0.580064E-03
   0.580064E-03
   0.846424E-03
   0.846424E-03
   0.846424E-03
   0.846424E-03
   0.435302E-03
   0.435302E-03
   0.435302E-03
   0.235199E-04
   0.235199E-04
   0.235199E-04
   0.801411E-03
   0.801411E-03
   0.801411E-03
   0.801411E-03
   0.650623E-03
   0.650623E-03
   0.650623E-03
   0.109769E-02
   0.109769E-02
   0.109769E-02
   0.165372E-02
   0.165372E-02
   0.165372E-02
   0.165372E-02
   0.179481E-02
   0.179481E-02
   0.179481E-02
   0.145801E-02
   0.145801E-02
   0.145801E-02
   0.145801E-02
   0.359886E-06
   0.359886E-06
   0.359886E-06
   0.623148E-03
   0.623148E-03
   0.623148E-03
   0.623148E-03
   0.646262E-03
   0.646262E-03
   0.646262E-03
   0.646262E-03
   0.115603E-02
   0.115603E-02
   0.115603E-02
   0.115603E-02
   0.599045E-04
   0.599045E-04
   0.599045E-04
   0.278445E-03
   0.278445E-03
   0.278445E-03
   0.278445E-03
   0.552003E-03
   0.552003E-03
   0.552003E-03
   0.552003E-03
   0.518975E-03
   0.518975E-03
   0.518975E-03
   0.518975E-03
   0.499079E-03
   0.499079E-03
   0.499079E-03
   0.205306E-03
   0.205306E-03
   0.205306E-03
   0.205306E-03
   0.200068E-03
   0.200068E-03
   0.200068E-03
   0.200068E-03
   0.114149E-05
   0.114149E-05
   0.114149E-05
   0.332192E-05
   0.332192E-05
   0.332192E-05
   0.903921E-03
   0.903921E-03
   0.903921E-03
   0.903921E-03
   0.907144E-03
   0.907144E-03
   0.907144E-03
   0.907144E-03
   0.200867E-02
   0.200867E-02
   0.200867E-02
   0.847069E-03
   0.847069E-03
   0.847069E-03
   0.847069E-03
   0.837206E-03
   0.837206E-03
   0.837206E-03
   0.837206E-03
   0.354897E-05
   0.354897E-05
   0.354897E-05
   0.184528E-02
   0.184528E-02
   0.184528E-02
   0.160269E-02
   0.160269E-02
   0.160269E-02
   0.133249E-02
   0.133249E-02
   0.133249E-02
   0.133249E-02
   0.654017E-03
   0.654017E-03
   0.654017E-03
   0.747661E-03
   0.747661E-03
   0.747661E-03
   0.118097E-02
   0.118097E-02
   0.118097E-02
   0.192728E-02
   0.192728E-02
   0.192728E-02
   0.102469E-02
   0.102469E-02
   0.102469E-02
   0.102469E-02
   0.921708E-03
   0.921708E-03
   0.921708E-03
   0.921708E-03
   0.830316E-03
   0.830316E-03
   0.830316E-03
   0.843984E-03
   0.843984E-03
   0.843984E-03
   0.148514E-02
   0.148514E-02
   0.148514E-02
   0.148514E-02
   0.202948E-02
   0.202948E-02
   0.202948E-02
   0.167978E-02
   0.167978E-02
   0.167978E-02
   0.167978E-02
   0.203001E-02
   0.203001E-02
   0.203001E-02
   0.104327E-02
   0.104327E-02
   0.104327E-02
   0.104327E-02
   0.127388E-02
   0.127388E-02
   0.127388E-02
   0.121478E-05
   0.121478E-05
   0.121478E-05
   0.923727E-03
   0.923727E-03
   0.923727E-03
   0.923727E-03
   0.579014E-03
   0.579014E-03
   0.579014E-03
   0.579014E-03
   0.747527E-03
   0.747527E-03
   0.747527E-03
   0.557652E-03
   0.557652E-03
   0.557652E-03
   0.647192E-03
   0.647192E-03
   0.647192E-03
   0.647192E-03
   0.161651E-02
   0.161651E-02
   0.161651E-02
   0.102709E-04
   0.102709E-04
   0.102709E-04
   0.757140E-03
   0.757140E-03
   0.757140E-03
   0.757140E-03
   0.193310E-02
   0.193310E-02
   0.193310E-02
   0.751948E-03
   0.751948E-03
   0.751948E-03
   0.751948E-03
   0.108623E-05
   0.108623E-05
   0.108623E-05
   0.763244E-06
   0.763244E-06
   0.763244E-06
   0.824380E-03
   0.824380E-03
   0.824380E-03
   0.618445E-03
   0.618445E-03
   0.618445E-03
   0.618445E-03
   0.619179E-03
   0.619179E-03
   0.619179E-03
   0.619179E-03
   0.210757E-02
   0.210757E-02
   0.210757E-02
   0.817848E-03
   0.817848E-03
   0.817848E-03
   0.817848E-03
   0.814983E-03
   0.814983E-03
   0.814983E-03
   0.814983E-03
   0.537033E-03
   0.537033E-03
   0.537033E-03
   0.621871E-03
   0.621871E-03
   0.621871E-03
   0.621871E-03
   0.578930E-03
   0.578930E-03
   0.578930E-03
   0.578930E-03
   0.628438E-03
   0.628438E-03
   0.628438E-03
   0.110213E-02
   0.110213E-02
   0.110213E-02
   0.802645E-03
   0.802645E-03
   0.802645E-03
   0.802645E-03
   0.515081E-03
   0.515081E-03
   0.515081E-03
   0.515081E-03
   0.538697E-03
   0.538697E-03
   0.538697E-03
   0.118554E-02
   0.118554E-02
   0.118554E-02
   0.102480E-02
   0.102480E-02
   0.102480E-02
   0.102480E-02
   0.841497E-03
   0.841497E-03
   0.841497E-03
   0.921481E-03
   0.921481E-03
   0.921481E-03
   0.921481E-03
   0.160259E-02
   0.160259E-02
   0.160259E-02
   0.188414E-02
   0.188414E-02
   0.188414E-02
   0.136183E-02
   0.136183E-02
   0.136183E-02
   0.136183E-02
   0.705138E-06
   0.705138E-06
   0.705138E-06
   0.618158E-03
   0.618158E-03
   0.618158E-03
   0.618158E-03
   0.841921E-03
   0.841921E-03
   0.841921E-03
   0.209059E-02
   0.209059E-02
   0.209059E-02
   0.184318E-02
   0.184318E-02
   0.184318E-02
   0.134212E-02
   0.134212E-02
   0.134212E-02
   0.134212E-02
   0.557514E-03
   0.557514E-03
   0.557514E-03
   0.961399E-06
   0.961399E-06
   0.961399E-06
   0.161178E-02
   0.161178E-02
   0.161178E-02
   0.102773E-04
   0.102773E-04
   0.102773E-04
   0.468722E-05
   0.468722E-05
   0.468722E-05
   0.462911E-05
   0.462911E-05
   0.462911E-05
   0.562495E-03
   0.562495E-03
   0.562495E-03
   0.705900E-03
   0.705900E-03
   0.705900E-03
   0.649056E-03
   0.649056E-03
   0.649056E-03
   0.649056E-03
   0.898689E-03
   0.898689E-03
   0.898689E-03
   0.898689E-03
   0.502945E-03
   0.502945E-03
   0.502945E-03
   0.831969E-03
   0.831969E-03
   0.831969E-03
   0.179314E-02
   0.179314E-02
   0.179314E-02
   0.145686E-02
   0.145686E-02
   0.145686E-02
   0.145686E-02
   0.164604E-02
   0.164604E-02
   0.164604E-02
   0.164604E-02
   0.647883E-03
   0.647883E-03
   0.647883E-03
   0.647883E-03
   0.623201E-03
   0.623201E-03
   0.623201E-03
   0.623201E-03
   0.106064E-05
   0.106064E-05
   0.106064E-05
   0.594242E-03
   0.594242E-03
   0.594242E-03
   0.594242E-03
   0.551430E-03
   0.551430E-03
   0.551430E-03
   0.551430E-03
   0.137230E-02
   0.137230E-02
   0.137230E-02
   0.137230E-02
   0.203541E-02
   0.203541E-02
   0.203541E-02
   0.189272E-02
   0.189272E-02
   0.189272E-02
   0.305648E-05
   0.305648E-05
   0.305648E-05
   0.848254E-03
   0.848254E-03
   0.848254E-03
   0.621643E-03
   0.621643E-03
   0.621643E-03
   0.621643E-03
   0.168373E-02
   0.168373E-02
   0.168373E-02
   0.168373E-02
   0.148468E-02
   0.148468E-02
   0.148468E-02
   0.148468E-02
   0.574953E-03
   0.574953E-03
   0.574953E-03
   0.574953E-03
   0.921386E-03
   0.921386E-03
   0.921386E-03
   0.921386E-03
   0.648537E-03
   0.648537E-03
   0.648537E-03
   0.748998E-03
   0.748998E-03
   0.748998E-03
   0.835386E-06
   0.835386E-06
   0.835386E-06
   0.563113E-03
   0.563113E-03
   0.563113E-03
   0.593423E-05
   0.593423E-05
   0.593423E-05
   0.840755E-03
   0.840755E-03
   0.840755E-03
   0.197197E-05
   0.197197E-05
   0.197197E-05
   0.641226E-03
   0.641226E-03
   0.641226E-03
   0.641226E-03
   0.604221E-03
   0.604221E-03
   0.604221E-03
   0.604221E-03
   0.897933E-03
   0.897933E-03
   0.897933E-03
   0.897933E-03
   0.545523E-03
   0.545523E-03
   0.545523E-03
   0.545523E-03
   0.632173E-03
   0.632173E-03
   0.632173E-03
   0.805823E-03
   0.805823E-03
   0.805823E-03
   0.805823E-03
   0.109866E-02
   0.109866E-02
   0.109866E-02
   0.513422E-03
   0.513422E-03
   0.513422E-03
   0.513422E-03
   0.541122E-03
   0.541122E-03
   0.541122E-03
   0.701887E-03
   0.701887E-03
   0.701887E-03
   0.504130E-03
   0.504130E-03
   0.504130E-03

SCALARS  vx_core_radius  double
LOOKUP_TABLE default
   0.000000E+00
   0.000000E+00
   0.000000E+00
   0.000000E+00
   0.000000E+00
   0.000000E+00
   0.000000E+00
   0.000000E+00
   0.000000E+00
   0.000000E+00
   0.000000E+00
   0.000000E+00
   0.000000E+00
   0.000000E+00
   0.000000E+00
   0.000000E+00
   0.000000E+00
   0.000000E+00
   0.000000E+00
   0.000000E+00
   0.000000E+00
   0.000000E+00
   0.000000E+00
   0.000000E+00
   0.000000E+00
   0.000000E+00
   0.000000E+00
   0.000000E+00
   0.000000E+00
   0.000000E+00
   0.000000E+00