# vtk DataFile Version 2.0
This file was created by Fortran
ASCII
DATASET UNSTRUCTURED_GRID
POINTS  1138  DOUBLE
  -0.329000E+00   0.184400E+00  -0.328200E+00
  -0.426100E+00   0.182100E+00  -0.187800E+00
  -0.187800E+00   0.182100E+00  -0.426100E+00
  -0.326800E+00   0.328600E+00  -0.187600E+00
  -0.187600E+00   0.328600E+00  -0.326800E+00
  -0.404500E+00   0.000000E+00  -0.293900E+00
  -0.293900E+00   0.000000E+00  -0.404500E+00
  -0.475500E+00   0.000000E+00  -0.154500E+00
  -0.154500E+00   0.000000E+00  -0.475500E+00
  -0.182200E+00   0.428500E+00  -0.182200E+00
  -0.404500E+00   0.293900E+00   0.000000E+00
   0.000000E+00   0.293900E+00  -0.404500E+00
  -0.475500E+00   0.154500E+00   0.000000E+00
   0.000000E+00   0.154500E+00  -0.475500E+00
  -0.328600E+00  -0.184500E+00  -0.328600E+00
  -0.293900E+00   0.404500E+00   0.000000E+00
   0.000000E+00   0.404500E+00  -0.293900E+00
  -0.426100E+00  -0.182100E+00  -0.187700E+00
  -0.187700E+00  -0.182100E+00  -0.426100E+00
  -0.500000E+00   0.000000E+00   0.000000E+00
   0.000000E+00   0.000000E+00  -0.500000E+00
  -0.154500E+00   0.475500E+00   0.000000E+00
   0.000000E+00   0.475500E+00  -0.154500E+00
  -0.475500E+00  -0.154500E+00   0.000000E+00
   0.000000E+00  -0.154500E+00  -0.475500E+00
  -0.426100E+00   0.182100E+00   0.187800E+00
   0.187800E+00   0.182100E+00  -0.426100E+00
  -0.326800E+00  -0.328600E+00  -0.187600E+00
  -0.187600E+00  -0.328600E+00  -0.326800E+00
  -0.326800E+00   0.328600E+00   0.187600E+00
   0.187600E+00   0.328600E+00  -0.326800E+00
  -0.475500E+00   0.000000E+00   0.154500E+00
   0.154500E+00   0.000000E+00  -0.475500E+00
   0.000000E+00   0.500000E+00   0.000000E+00
  -0.182200E+00   0.428500E+00   0.182200E+00
  -0.404500E+00  -0.293900E+00   0.000000E+00
   0.182200E+00   0.428500E+00  -0.182200E+00
   0.000000E+00  -0.293900E+00  -0.404500E+00
  -0.426100E+00  -0.182100E+00   0.187700E+00
   0.187700E+00  -0.182100E+00  -0.426100E+00
  -0.182200E+00  -0.428500E+00  -0.182200E+00
   0.000000E+00   0.475500E+00   0.154500E+00
   0.154500E+00   0.475500E+00   0.000000E+00
  -0.404500E+00   0.000000E+00   0.293900E+00
   0.293900E+00   0.000000E+00  -0.404500E+00
  -0.328200E+00   0.184400E+00   0.329000E+00
   0.329000E+00   0.184400E+00  -0.328200E+00
  -0.293900E+00  -0.404500E+00   0.000000E+00
   0.000000E+00  -0.404500E+00  -0.293900E+00
  -0.187600E+00   0.328600E+00   0.326800E+00
   0.326800E+00   0.328600E+00  -0.187600E+00
  -0.326800E+00  -0.328600E+00   0.187600E+00
   0.187600E+00  -0.328600E+00  -0.326800E+00
   0.000000E+00   0.404500E+00   0.293900E+00
   0.293900E+00   0.404500E+00   0.000000E+00
  -0.328600E+00  -0.184500E+00   0.328600E+00
   0.328600E+00  -0.184500E+00  -0.328600E+00
  -0.293900E+00   0.000000E+00   0.404500E+00
   0.404500E+00   0.000000E+00  -0.293900E+00
  -0.154500E+00  -0.475500E+00   0.000000E+00
   0.000000E+00  -0.475500E+00  -0.154500E+00
   0.182200E+00   0.428500E+00   0.182200E+00
  -0.187800E+00   0.182100E+00   0.426100E+00
   0.426100E+00   0.182100E+00  -0.187800E+00
   0.000000E+00   0.293900E+00   0.404500E+00
  -0.182200E+00  -0.428500E+00   0.182200E+00
   0.404500E+00   0.293900E+00   0.000000E+00
   0.182200E+00  -0.428500E+00  -0.182200E+00
   0.000000E+00  -0.500000E+00   0.000000E+00
  -0.154500E+00   0.000000E+00   0.475500E+00
   0.475500E+00   0.000000E+00  -0.154500E+00
  -0.187600E+00  -0.328600E+00   0.326800E+00
   0.326800E+00  -0.328600E+00  -0.187600E+00
   0.187600E+00   0.328600E+00   0.326800E+00
   0.326800E+00   0.328600E+00   0.187600E+00
  -0.187700E+00  -0.182100E+00   0.426100E+00
   0.426100E+00  -0.182100E+00  -0.187700E+00
   0.000000E+00   0.154500E+00   0.475500E+00
   0.475500E+00   0.154500E+00   0.000000E+00
   0.000000E+00  -0.475500E+00   0.154500E+00
   0.154500E+00  -0.475500E+00   0.000000E+00
   0.000000E+00   0.000000E+00   0.500000E+00
   0.500000E+00   0.000000E+00   0.000000E+00
   0.187800E+00   0.182100E+00   0.426100E+00
   0.426100E+00   0.182100E+00   0.187800E+00
   0.000000E+00  -0.404500E+00   0.293900E+00
   0.293900E+00  -0.404500E+00   0.000000E+00
   0.329000E+00   0.184400E+00   0.328200E+00
   0.000000E+00  -0.154500E+00   0.475500E+00
   0.475500E+00  -0.154500E+00   0.000000E+00
   0.000000E+00  -0.293900E+00   0.404500E+00
   0.404500E+00  -0.293900E+00   0.000000E+00
   0.182200E+00  -0.428500E+00   0.182200E+00
   0.154500E+00   0.000000E+00   0.475500E+00
   0.475500E+00   0.000000E+00   0.154500E+00
   0.293900E+00   0.000000E+00   0.404500E+00
   0.404500E+00   0.000000E+00   0.293900E+00
   0.187600E+00  -0.328600E+00   0.326800E+00
   0.326800E+00  -0.328600E+00   0.187600E+00
   0.187700E+00  -0.182100E+00   0.426100E+00
   0.426100E+00  -0.182100E+00   0.187700E+00
   0.328600E+00  -0.184500E+00   0.328600E+00
  -0.409917E+00   0.182483E+00  -0.211200E+00
  -0.377550E+00   0.183250E+00  -0.258000E+00
  -0.345183E+00   0.184017E+00  -0.304800E+00
  -0.395063E+00   0.230500E-01  -0.298187E+00
  -0.376188E+00   0.691500E-01  -0.306762E+00
  -0.357313E+00   0.115250E+00  -0.315337E+00
  -0.338438E+00   0.161350E+00  -0.323912E+00
  -0.298287E+00   0.230500E-01  -0.394962E+00
  -0.307063E+00   0.691500E-01  -0.375887E+00
  -0.315837E+00   0.115250E+00  -0.356812E+00
  -0.324612E+00   0.161350E+00  -0.337737E+00
  -0.211333E+00   0.182483E+00  -0.409783E+00
  -0.258400E+00   0.183250E+00  -0.377150E+00
  -0.305467E+00   0.184017E+00  -0.344517E+00
  -0.327075E+00   0.310575E+00  -0.205175E+00
  -0.327625E+00   0.274525E+00  -0.240325E+00
  -0.328175E+00   0.238475E+00  -0.275475E+00
  -0.328725E+00   0.202425E+00  -0.310625E+00
  -0.205275E+00   0.310575E+00  -0.326975E+00
  -0.240625E+00   0.274525E+00  -0.327325E+00
  -0.275975E+00   0.238475E+00  -0.327675E+00
  -0.311325E+00   0.202425E+00  -0.328025E+00
  -0.467267E+00   0.159100E+00  -0.313000E-01
  -0.450800E+00   0.168300E+00  -0.939000E-01
  -0.434333E+00   0.177500E+00  -0.156500E+00
  -0.467267E+00   0.303500E-01  -0.160050E+00
  -0.450800E+00   0.910500E-01  -0.171150E+00
  -0.434333E+00   0.151750E+00  -0.182250E+00
  -0.407200E+00   0.227625E-01  -0.280637E+00
  -0.412600E+00   0.682875E-01  -0.254112E+00
  -0.418000E+00   0.113813E+00  -0.227587E+00
  -0.423400E+00   0.159337E+00  -0.201062E+00
  -0.343350E+00   0.304183E+00  -0.187633E+00
  -0.376450E+00   0.255350E+00  -0.187700E+00
  -0.409550E+00   0.206517E+00  -0.187767E+00
  -0.407200E+00   0.279925E+00  -0.234750E-01
  -0.412600E+00   0.251975E+00  -0.704250E-01
  -0.418000E+00   0.224025E+00  -0.117375E+00
  -0.423400E+00   0.196075E+00  -0.164325E+00
  -0.280637E+00   0.227625E-01  -0.407200E+00
  -0.254112E+00   0.682875E-01  -0.412600E+00
  -0.227587E+00   0.113813E+00  -0.418000E+00
  -0.201062E+00   0.159337E+00  -0.423400E+00
  -0.160050E+00   0.303500E-01  -0.467267E+00
  -0.171150E+00   0.910500E-01  -0.450800E+00
  -0.182250E+00   0.151750E+00  -0.434333E+00
  -0.187633E+00   0.304183E+00  -0.343350E+00
  -0.187700E+00   0.255350E+00  -0.376450E+00
  -0.187767E+00   0.206517E+00  -0.409550E+00
  -0.234750E-01   0.279925E+00  -0.407200E+00
  -0.704250E-01   0.251975E+00  -0.412600E+00
  -0.117375E+00   0.224025E+00  -0.418000E+00
  -0.164325E+00   0.196075E+00  -0.423400E+00
  -0.313000E-01   0.159100E+00  -0.467267E+00
  -0.939000E-01   0.168300E+00  -0.450800E+00
  -0.156500E+00   0.177500E+00  -0.434333E+00
  -0.394788E+00   0.298237E+00  -0.234500E-01
  -0.375362E+00   0.306912E+00  -0.703500E-01
  -0.355938E+00   0.315588E+00  -0.117250E+00
  -0.336512E+00   0.324263E+00  -0.164150E+00
  -0.210800E+00   0.328600E+00  -0.303600E+00
  -0.257200E+00   0.328600E+00  -0.257200E+00
  -0.303600E+00   0.328600E+00  -0.210800E+00
  -0.206300E+00   0.411850E+00  -0.183100E+00
  -0.254500E+00   0.378550E+00  -0.184900E+00
  -0.302700E+00   0.345250E+00  -0.186700E+00
  -0.298013E+00   0.395013E+00  -0.234500E-01
  -0.306237E+00   0.376038E+00  -0.703500E-01
  -0.314462E+00   0.357063E+00  -0.117250E+00
  -0.322688E+00   0.338088E+00  -0.164150E+00
  -0.183100E+00   0.411850E+00  -0.206300E+00
  -0.184900E+00   0.378550E+00  -0.254500E+00
  -0.186700E+00   0.345250E+00  -0.302700E+00
  -0.234500E-01   0.298237E+00  -0.394788E+00
  -0.703500E-01   0.306912E+00  -0.375362E+00
  -0.117250E+00   0.315588E+00  -0.355938E+00
  -0.164150E+00   0.324263E+00  -0.336512E+00
  -0.234500E-01   0.395013E+00  -0.298013E+00
  -0.703500E-01   0.376038E+00  -0.306237E+00
  -0.117250E+00   0.357063E+00  -0.314462E+00
  -0.164150E+00   0.338088E+00  -0.322688E+00
  -0.312333E+00   0.000000E+00  -0.386067E+00
  -0.349200E+00   0.000000E+00  -0.349200E+00
  -0.386067E+00   0.000000E+00  -0.312333E+00
  -0.423400E+00  -0.159338E+00  -0.200975E+00
  -0.418000E+00  -0.113813E+00  -0.227525E+00
  -0.412600E+00  -0.682875E-01  -0.254075E+00
  -0.407200E+00  -0.227625E-01  -0.280625E+00
  -0.463667E+00   0.000000E+00  -0.177733E+00
  -0.440000E+00   0.000000E+00  -0.224200E+00
  -0.416333E+00   0.000000E+00  -0.270667E+00
  -0.338087E+00  -0.161438E+00  -0.324263E+00
  -0.357063E+00  -0.115313E+00  -0.315588E+00
  -0.376038E+00  -0.691875E-01  -0.306913E+00
  -0.395012E+00  -0.230625E-01  -0.298237E+00
  -0.177733E+00   0.000000E+00  -0.463667E+00
  -0.224200E+00   0.000000E+00  -0.440000E+00
  -0.270667E+00   0.000000E+00  -0.416333E+00
  -0.324263E+00  -0.161438E+00  -0.338087E+00
  -0.315588E+00  -0.115313E+00  -0.357063E+00
  -0.306913E+00  -0.691875E-01  -0.376038E+00
  -0.298237E+00  -0.230625E-01  -0.395012E+00
  -0.200975E+00  -0.159338E+00  -0.423400E+00
  -0.227525E+00  -0.113813E+00  -0.418000E+00
  -0.254075E+00  -0.682875E-01  -0.412600E+00
  -0.280625E+00  -0.227625E-01  -0.407200E+00
  -0.475500E+00  -0.135187E+00  -0.193125E-01
  -0.475500E+00  -0.965625E-01  -0.579375E-01
[...]
POINT_DATA  1138
SCALARS  vx_strength  double
LOOKUP_TABLE default
   0.000000E+00
   0.000000E+00
   0.000000E+00
   0.000000E+00
   0.000000E+00
   0.000000E+00
   0.000000E+00
   0.000000E+00
   0.000000E+00
   0.000000E+00
   0.000000E+00
   0.000000E+00
   0.000000E+00
   0.000000E+00
   0.000000E+00
   0.000000E+00
   0.000000E+00
   0.000000E+00
   0.000000E+00
   0.000000E+00
   0.000000E+00
   0.000000E+00
   0.000000E+00
   0.000000E+00
   0.000000E+00
   0.000000E+00
   0.000000E+00
   0.000000E+00
   0.000000E+00
   0.000000E+00
   0.000000E+00
   0.000000E+00
   0.000000E+00
   0.000000E+00
   0.000000E+00
   0.000000E+00
   0.000000E+00
   0.000000E+00
   0.000000E+00
   0.000000E+00
   0.000000E+00
   0.000000E+00
   0.000000E+00
   0.000000E+00
   0.000000E+00
   0.000000E+00
   0.000000E+00
   0.000000E+00
   0.000000E+00
   0.000000E+00
   0.000000E+00
   0.000000E+00
   0.000000E+00
   0.000000E+00
   0.000000E+00
   0.000000E+00
   0.000000E+00
   0.000000E+00
   0.000000E+00
   0.000000E+00
   0.000000E+00
   0.000000E+00
   0.000000E+00
   0.000000E+00
   0.000000E+00
   0.000000E+00
   0.000000E+00
   0.000000E+00
   0.000000E+00
   0.000000E+00
   0.000000E+00
   0.000000E+00
   0.000000E+00
   0.000000E+00
   0.000000E+00
   0.000000E+00
   0.000000E+00
   0.000000E+00
   0.000000E+00
   0.000000E+00
   0.000000E+00
   0.000000E+00
   0.000000E+00
   0.000000E+00
   0.000000E+00
   0.000000E+00
   0.000000E+00
   0.000000E+00
   0.000000E+00
   0.000000E+00
   0.000000E+00
   0.000000E+00
   0.000000E+00
   0.000000E+00
   0.000000E+00
   0.000000E+00
   0.000000E+00
   0.000000E+00
   0.000000E+00
   0.000000E+00
   0.000000E+00
   0.000000E+00
   0.659035E-03
   0.659035E-03
   0.659035E-03
   0.779197E-03
   0.779197E-03
   0.779197E-03
   0.779197E-03
   0.128794E-02
   0.128794E-02
   0.128794E-02
   0.128794E-02
   0.835553E-04
   0.835553E-04
   0.835553E-04
   0.116981E-02
   0.116981E-02
   0.116981E-02
   0.116981E-02
   0.230669E-03
   0.230669E-03
   0.230669E-03
   0.230669E-03
   0.709392E-03
   0.709392E-03
   0.709392E-03
   0.666267E-03
   0.666267E-03
   0.666267E-03
   0.901366E-03
   0.901366E-03
   0.901366E-03
   0.901366E-03
   0.728929E-03
   0.728929E-03
   0.728929E-03
   0.868896E-03
   0.868896E-03
   0.868896E-03
   0.868896E-03
   0.297263E-03
   0.297263E-03
   0.297263E-03
   0.297263E-03
   0.239677E-02
   0.239677E-02
   0.239677E-02
   0.258477E-02
   0.258477E-02
   0.258477E-02
   0.112769E-02
   0.112769E-02
   0.112769E-02
   0.112769E-02
   0.139416E-02
   0.139416E-02
   0.139416E-02
   0.824457E-03
   0.824457E-03
   0.824457E-03
   0.824457E-03
   0.346652E-03
   0.346652E-03
   0.346652E-03
   0.948663E-04
   0.948663E-04
   0.948663E-04
   0.135732E-02
   0.135732E-02
   0.135732E-02
   0.135732E-02
   0.251952E-02
   0.251952E-02
   0.251952E-02
   0.827640E-03
   0.827640E-03
   0.827640E-03
   0.827640E-03
   0.817937E-03
   0.817937E-03
   0.817937E-03
   0.817937E-03
   0.173700E-04
   0.173700E-04
   0.173700E-04
   0.843756E-03
   0.843756E-03
   0.843756E-03
   0.843756E-03
   0.231748E-04
   0.231748E-04
   0.231748E-04
   0.796278E-03
   0.796278E-03
   0.796278E-03
   0.796278E-03
   0.630785E-04
   0.630785E-04
   0.630785E-04
   0.131851E-02
   0.131851E-02
   0.131851E-02
   0.131851E-02
   0.346230E-03
   0.346230E-03
   0.346230E-03
   0.346230E-03
   0.452845E-03
   0.452845E-03
   0.452845E-03
   0.452845E-03
   0.455913E-03
   0.455913E-03
   0.455913E-03
   0.455913E-03
   0.694757E-03
   0.694757E-03
   0.694757E-03
   0.279100E-05
   0.279100E-05
   0.279100E-05
   0.107824E-04
   0.107824E-04
   0.107824E-04
   0.230150E-02
   0.230150E-02
   0.230150E-02
   0.776824E-03
   0.776824E-03
   0.776824E-03
   0.776824E-03
   0.750299E-03
   0.750299E-03
   0.750299E-03
   0.750299E-03
   0.301970E-03
   0.301970E-03
   0.301970E-03
   0.301970E-03
   0.107809E-02
   0.107809E-02
   0.107809E-02
   0.107809E-02
   0.239098E-02
   0.239098E-02
   0.239098E-02
   0.139569E-02
   0.139569E-02
   0.139569E-02
   0.252962E-05
   0.252962E-05
   0.252962E-05
   0.824941E-03
   0.824941E-03
   0.824941E-03
   0.824941E-03
   0.868194E-03
   0.868194E-03
   0.868194E-03
   0.868194E-03
   0.270618E-05
   0.270618E-05
   0.270618E-05
   0.176788E-02
   0.176788E-02
   0.176788E-02
   0.212776E-02
   0.212776E-02
   0.212776E-02
   0.161509E-02
   0.161509E-02
   0.161509E-02
   0.161509E-02
   0.138987E-02
   0.138987E-02
   0.138987E-02
   0.138987E-02
   0.709135E-03
   0.709135E-03
   0.709135E-03
   0.459199E-03
   0.459199E-03
   0.459199E-03
   0.459199E-03
   0.225409E-06
   0.225409E-06
   0.225409E-06
   0.159456E-02
   0.159456E-02
   0.159456E-02
   0.183281E-02
   0.183281E-02
   0.183281E-02
   0.136082E-02
   0.136082E-02
   0.136082E-02
   0.136082E-02
   0.675581E-03
   0.675581E-03
   0.675581E-03
   0.118791E-02
   0.118791E-02
   0.118791E-02
   0.118791E-02
   0.116473E-03
   0.116473E-03
   0.116473E-03
   0.218751E-03
   0.218751E-03
   0.218751E-03
   0.218751E-03
   0.263078E-05
   0.263078E-05
   0.263078E-05
   0.302628E-03
   0.302628E-03
   0.302628E-03
   0.302628E-03
   0.135679E-02
   0.135679E-02
   0.135679E-02
   0.135679E-02
   0.209501E-02
   0.209501E-02
   0.209501E-02
   0.137682E-02
   0.137682E-02
   0.137682E-02
   0.137682E-02
   0.156098E-02
   0.156098E-02
   0.156098E-02
   0.156098E-02
   0.709438E-03
   0.709438E-03
   0.709438E-03
   0.871258E-03
   0.871258E-03
   0.871258E-03
   0.871258E-03
   0.702193E-03
   0.702193E-03
   0.702193E-03
   0.259693E-02
   0.259693E-02
   0.259693E-02
   0.139651E-02
   0.139651E-02
   0.139651E-02
   0.114030E-02
   0.114030E-02
   0.114030E-02
   0.114030E-02
   0.113215E-05
   0.113215E-05
   0.113215E-05
   0.188426E-05
   0.188426E-05
   0.188426E-05
   0.415206E-05
   0.415206E-05
   0.415206E-05
   0.157962E-02
   0.157962E-02
   0.157962E-02
   0.105289E-04
   0.105289E-04
   0.105289E-04
   0.838500E-03
   0.838500E-03
   0.838500E-03
   0.838500E-03
   0.238748E-02
   0.238748E-02
   0.238748E-02
   0.849783E-03
   0.849783E-03
   0.849783E-03
   0.849783E-03
   0.161895E-02
   0.161895E-02
   0.161895E-02
   0.175761E-02
   0.175761E-02
   0.175761E-02
   0.136855E-02
   0.136855E-02
   0.136855E-02
   0.136855E-02
   0.457130E-03
   0.457130E-03
   0.457130E-03
   0.457130E-03
   0.710632E-03
   0.710632E-03
   0.710632E-03
   0.391202E-05
   0.391202E-05
   0.391202E-05
   0.135777E-02
   0.135777E-02
   0.135777E-02
   0.135777E-02
   0.213707E-02
   0.213707E-02
   0.213707E-02
   0.182388E-02
   0.182388E-02
   0.182388E-02
   0.678062E-03
   0.678062E-03
   0.678062E-03
   0.855620E-03
   0.855620E-03
   0.855620E-03
   0.855620E-03
   0.682284E-03
   0.682284E-03
   0.682284E-03
   0.708927E-03
   0.708927E-03
   0.708927E-03
   0.506859E-03
   0.506859E-03
   0.506859E-03
   0.198798E-03
   0.198798E-03
   0.198798E-03
   0.562152E-03
   0.562152E-03
   0.562152E-03
   0.562152E-03
   0.842573E-03
   0.842573E-03
   0.842573E-03
   0.821007E-03
   0.821007E-03
   0.821007E-03
   0.821007E-03
   0.135993E-02
   0.135993E-02
   0.135993E-02
   0.135993E-02
   0.364073E-03
   0.364073E-03
   0.364073E-03
   0.852667E-04
   0.852667E-04
   0.852667E-04
   0.251134E-02
   0.251134E-02
   0.251134E-02
   0.824242E-03
   0.824242E-03
   0.824242E-03
   0.824242E-03
   0.822157E-03
   0.822157E-03
   0.822157E-03
   0.822157E-03
   0.358416E-03
   0.358416E-03
   0.358416E-03
   0.118413E-02
   0.118413E-02
   0.118413E-02
   0.118413E-02
   0.912756E-04
   0.912756E-04
   0.912756E-04
   0.594103E-03
   0.594103E-03
   0.594103E-03
   0.100736E-02
   0.100736E-02
   0.100736E-02
   0.100736E-02
   0.141888E-02
   0.141888E-02
   0.141888E-02
   0.685297E-03
   0.685297E-03
   0.685297E-03
   0.241987E-05
   0.241987E-05
   0.241987E-05
   0.294085E-05
   0.294085E-05
   0.294085E-05
   0.196697E-03
   0.196697E-03
   0.196697E-03
   0.483795E-05
   0.483795E-05
   0.483795E-05
   0.160358E-02
   0.160358E-02
   0.160358E-02
   0.108262E-02
   0.108262E-02
   0.108262E-02
   0.108262E-02
   0.251807E-02
   0.251807E-02
   0.251807E-02
   0.139600E-02
   0.139600E-02
   0.139600E-02
   0.867245E-03
   0.867245E-03
   0.867245E-03
   0.867245E-03
   0.824301E-03
   0.824301E-03
   0.824301E-03
   0.824301E-03
   0.343333E-05
   0.343333E-05
   0.343333E-05
   0.209161E-03
   0.209161E-03
   0.209161E-03
   0.992470E-03
   0.992470E-03
   0.992470E-03
   0.613225E-03
   0.613225E-03
   0.613225E-03
   0.613225E-03
   0.161614E-02
   0.161614E-02
   0.161614E-02
   0.161614E-02
   0.176629E-02
   0.176629E-02
   0.176629E-02
   0.139632E-02
   0.139632E-02
   0.139632E-02
   0.139632E-02
   0.846270E-03
   0.846270E-03
   0.846270E-03
   0.846270E-03
   0.679453E-03
   0.679453E-03
   0.679453E-03
   0.703488E-03
   0.703488E-03
   0.703488E-03
   0.569468E-03
   0.569468E-03
   0.569468E-03
   0.569468E-03
   0.504273E-03
   0.504273E-03
   0.504273E-03
   0.838592E-03
   0.838592E-03
   0.838592E-03
   0.300413E-03
   0.300413E-03
   0.300413E-03
   0.300413E-03
   0.239093E-02
   0.239093E-02
   0.239093E-02
   0.107553E-02
   0.107553E-02
   0.107553E-02
   0.107553E-02
   0.138925E-02
   0.138925E-02
   0.138925E-02
   0.136525E-02
   0.136525E-02
   0.136525E-02
   0.136525E-02
   0.209660E-02
   0.209660E-02
   0.209660E-02
   0.176098E-02
   0.176098E-02
   0.176098E-02
   0.107499E-05
   0.107499E-05
   0.107499E-05
   0.209897E-03
   0.209897E-03
   0.209897E-03
   0.803108E-03
   0.803108E-03
   0.803108E-03
   0.803108E-03
   0.793159E-03
   0.793159E-03
   0.793159E-03
   0.793159E-03
   0.378187E-05
   0.378187E-05
   0.378187E-05
   0.353001E-05
   0.353001E-05
   0.353001E-05
   0.934636E-03
   0.934636E-03
   0.934636E-03
   0.934636E-03
   0.920898E-03
   0.920898E-03
   0.920898E-03
   0.920898E-03
   0.109059E-03
   0.109059E-03
   0.109059E-03
   0.131474E-02
   0.131474E-02
   0.131474E-02
   0.131474E-02
   0.224629E-03
   0.224629E-03
   0.224629E-03
   0.224629E-03
   0.788419E-03
   0.788419E-03
   0.788419E-03
   0.788419E-03
   0.413463E-03
   0.413463E-03
   0.413463E-03
   0.413463E-03
   0.326162E-03
   0.326162E-03
   0.326162E-03
   0.135677E-02
   0.135677E-02
   0.135677E-02
   0.135677E-02
   0.304577E-03
   0.304577E-03
   0.304577E-03
   0.304577E-03
   0.425512E-05
   0.425512E-05
   0.425512E-05
   0.137595E-02
   0.137595E-02
   0.137595E-02
   0.137595E-02
   0.209353E-02
   0.209353E-02
   0.209353E-02
   0.156716E-02
   0.156716E-02
   0.156716E-02
   0.156716E-02
   0.823454E-03
   0.823454E-03
   0.823454E-03
   0.823454E-03
   0.258949E-02
   0.258949E-02
   0.258949E-02
   0.823103E-03
   0.823103E-03
   0.823103E-03
   0.823103E-03
   0.905929E-03
   0.905929E-03
   0.905929E-03
   0.905929E-03
   0.350152E-03
   0.350152E-03
   0.350152E-03
   0.443356E-03
   0.443356E-03
   0.443356E-03
   0.443356E-03
   0.118810E-02
   0.118810E-02
   0.118810E-02
   0.118810E-02
   0.359239E-03
   0.359239E-03
   0.359239E-03
   0.882097E-04
   0.882097E-04
   0.882097E-04
   0.993638E-03
   0.993638E-03
   0.993638E-03
   0.993638E-03
   0.598018E-03
   0.598018E-03
   0.598018E-03
   0.141987E-02
   0.141987E-02
   0.141987E-02
   0.156307E-02
   0.156307E-02
   0.156307E-02
   0.156307E-02
   0.176741E-02
   0.176741E-02
   0.176741E-02
   0.137595E-02
   0.137595E-02
   0.137595E-02
   0.137595E-02
   0.109527E-05
   0.109527E-05
   0.109527E-05
   0.901229E-03
   0.901229E-03
   0.901229E-03
   0.901229E-03
   0.615918E-03
   0.615918E-03
   0.615918E-03
   0.615918E-03
   0.131185E-02
   0.131185E-02
   0.131185E-02
   0.131185E-02
   0.109772E-03
   0.109772E-03
   0.109772E-03
   0.221236E-03
   0.221236E-03
   0.221236E-03
   0.221236E-03
   0.422816E-03
   0.422816E-03
   0.422816E-03
   0.422816E-03
   0.788491E-03
   0.788491E-03
   0.788491E-03
   0.788491E-03
   0.335129E-03
   0.335129E-03
   0.335129E-03
   0.353968E-03
   0.353968E-03
   0.353968E-03
   0.353968E-03
   0.347117E-03
   0.347117E-03
   0.347117E-03
   0.347117E-03
   0.540148E-05
   0.540148E-05
   0.540148E-05
   0.763173E-06
   0.763173E-06
   0.763173E-06
   0.969113E-03
   0.969113E-03
   0.969113E-03
   0.969113E-03
   0.963028E-03
   0.963028E-03
   0.963028E-03
   0.963028E-03
   0.238458E-02
   0.238458E-02
   0.238458E-02
   0.836890E-03
   0.836890E-03
   0.836890E-03
   0.836890E-03
   0.849059E-03
   0.849059E-03
   0.849059E-03
   0.849059E-03
   0.106488E-04
   0.106488E-04
   0.106488E-04
   0.176395E-02
   0.176395E-02
   0.176395E-02
   0.161832E-02
   0.161832E-02
   0.161832E-02
   0.137010E-02
   0.137010E-02
   0.137010E-02
   0.137010E-02
   0.596762E-03
   0.596762E-03
   0.596762E-03
   0.998216E-03
   0.998216E-03
   0.998216E-03
   0.139242E-02
   0.139242E-02
   0.139242E-02
   0.230101E-02
   0.230101E-02
   0.230101E-02
   0.113613E-02
   0.113613E-02
   0.113613E-02
   0.113613E-02
   0.100905E-02
   0.100905E-02
   0.100905E-02
   0.100905E-02
   0.653562E-03
   0.653562E-03
   0.653562E-03
   0.650463E-03
   0.650463E-03
   0.650463E-03
   0.139529E-02
   0.139529E-02
   0.139529E-02
   0.139529E-02
   0.213399E-02
   0.213399E-02
   0.213399E-02
   0.161502E-02
   0.161502E-02
   0.161502E-02
   0.161502E-02
   0.251725E-02
   0.251725E-02
   0.251725E-02
   0.108241E-02
   0.108241E-02
   0.108241E-02
   0.108241E-02
   0.139271E-02
   0.139271E-02
   0.139271E-02
   0.188057E-05
   0.188057E-05
   0.188057E-05
   0.100294E-02
   0.100294E-02
   0.100294E-02
   0.100294E-02
   0.448310E-03
   0.448310E-03
   0.448310E-03
   0.448310E-03
   0.993013E-03
   0.993013E-03
   0.993013E-03
   0.210806E-03
   0.210806E-03
   0.210806E-03
   0.612337E-03
   0.612337E-03
   0.612337E-03
   0.612337E-03
   0.160311E-02
   0.160311E-02
   0.160311E-02
   0.456791E-05
   0.456791E-05
   0.456791E-05
   0.751855E-03
   0.751855E-03
   0.751855E-03
   0.751855E-03
   0.229477E-02
   0.229477E-02
   0.229477E-02
   0.751249E-03
   0.751249E-03
   0.751249E-03
   0.751249E-03
   0.103079E-06
   0.103079E-06
   0.103079E-06
   0.188292E-05
   0.188292E-05
   0.188292E-05
   0.654983E-03
   0.654983E-03
   0.654983E-03
   0.561104E-03
   0.561104E-03
   0.561104E-03
   0.561104E-03
   0.562610E-03
   0.562610E-03
   0.562610E-03
   0.562610E-03
   0.258861E-02
   0.258861E-02
   0.258861E-02
   0.817778E-03
   0.817778E-03
   0.817778E-03
   0.817778E-03
   0.821823E-03
   0.821823E-03
   0.821823E-03
   0.821823E-03
   0.351868E-03
   0.351868E-03
   0.351868E-03
   0.906168E-03
   0.906168E-03
   0.906168E-03
   0.906168E-03
   0.444176E-03
   0.444176E-03
   0.444176E-03
   0.444176E-03
   0.507277E-03
   0.507277E-03
   0.507277E-03
   0.142476E-02
   0.142476E-02
   0.142476E-02
   0.100377E-02
   0.100377E-02
   0.100377E-02
   0.100377E-02
   0.785824E-03
   0.785824E-03
   0.785824E-03
   0.785824E-03
   0.353953E-03
   0.353953E-03
   0.353953E-03
   0.140241E-02
   0.140241E-02
   0.140241E-02
   0.114171E-02
   0.114171E-02
   0.114171E-02
   0.114171E-02
   0.651366E-03
   0.651366E-03
   0.651366E-03
   0.100821E-02
   0.100821E-02
   0.100821E-02
   0.100821E-02
   0.158457E-02
   0.158457E-02
   0.158457E-02
   0.182592E-02
   0.182592E-02
   0.182592E-02
   0.136220E-02
   0.136220E-02
   0.136220E-02
   0.136220E-02
   0.689325E-06
   0.689325E-06
   0.689325E-06
   0.558360E-03
   0.558360E-03
   0.558360E-03
   0.558360E-03
   0.656970E-03
   0.656970E-03
   0.656970E-03
   0.209956E-02
   0.209956E-02
   0.209956E-02
   0.176876E-02
   0.176876E-02
   0.176876E-02
   0.136713E-02
   0.136713E-02
   0.136713E-02
   0.136713E-02
   0.211504E-03
   0.211504E-03
   0.211504E-03
   0.116493E-05
   0.116493E-05
   0.116493E-05
   0.158565E-02
   0.158565E-02
   0.158565E-02
   0.974089E-06
   0.974089E-06
   0.974089E-06
   0.577187E-05
   0.577187E-05
   0.577187E-05
   0.457827E-05
   0.457827E-05
   0.457827E-05
   0.204801E-03
   0.204801E-03
   0.204801E-03
   0.845089E-03
   0.845089E-03
   0.845089E-03
   0.574591E-03
   0.574591E-03
   0.574591E-03
   0.574591E-03
   0.955325E-03
   0.955325E-03
   0.955325E-03
   0.955325E-03
   0.331065E-03
   0.331065E-03
   0.331065E-03
   0.668051E-03
   0.668051E-03
   0.668051E-03
   0.176144E-02
   0.176144E-02
   0.176144E-02
   0.137421E-02
   0.137421E-02
   0.137421E-02
   0.137421E-02
   0.156933E-02
   0.156933E-02
   0.156933E-02
   0.156933E-02
   0.613069E-03
   0.613069E-03
   0.613069E-03
   0.613069E-03
   0.902790E-03
   0.902790E-03
   0.902790E-03
   0.902790E-03
   0.156126E-05
   0.156126E-05
   0.156126E-05
   0.921305E-03
   0.921305E-03
   0.921305E-03
   0.921305E-03
   0.422710E-03
   0.422710E-03
   0.422710E-03
   0.422710E-03
   0.136316E-02
   0.136316E-02
   0.136316E-02
   0.136316E-02
   0.213662E-02
   0.213662E-02
   0.213662E-02
   0.181818E-02
   0.181818E-02
   0.181818E-02
   0.271111E-05
   0.271111E-05
   0.271111E-05
   0.679876E-03
   0.679876E-03
   0.679876E-03
   0.535571E-03
   0.535571E-03
   0.535571E-03
   0.535571E-03
   0.161654E-02
   0.161654E-02
   0.161654E-02
   0.161654E-02
   0.140014E-02
   0.140014E-02
   0.140014E-02
   0.140014E-02
   0.445615E-03
   0.445615E-03
   0.445615E-03
   0.445615E-03
   0.100547E-02
   0.100547E-02
   0.100547E-02
   0.100547E-02
   0.601326E-03
   0.601326E-03
   0.601326E-03
   0.998555E-03
   0.998555E-03
   0.998555E-03
   0.836626E-06
   0.836626E-06
   0.836626E-06
   0.205741E-03
   0.205741E-03
   0.205741E-03
   0.204925E-04
   0.204925E-04
   0.204925E-04
   0.663930E-03
   0.663930E-03
   0.663930E-03
   0.178852E-04
   0.178852E-04
   0.178852E-04
   0.591908E-03
   0.591908E-03
   0.591908E-03
   0.591908E-03
   0.887750E-03
   0.887750E-03
   0.887750E-03
   0.887750E-03
   0.967600E-03
   0.967600E-03
   0.967600E-03
   0.967600E-03
   0.449103E-03
   0.449103E-03
   0.449103E-03
   0.449103E-03
   0.505938E-03
   0.505938E-03
   0.505938E-03
   0.990496E-03
   0.990496E-03
   0.990496E-03
   0.990496E-03
   0.142472E-02
   0.142472E-02
   0.142472E-02
   0.790317E-03
   0.790317E-03
   0.790317E-03
   0.790317E-03
   0.348712E-03
   0.348712E-03
   0.348712E-03
   0.850919E-03
   0.850919E-03
   0.850919E-03
   0.341207E-03
   0.341207E-03
   0.341207E-03

SCALARS  vx_core_radius  double
LOOKUP_TABLE default
   0.000000E+00
   0.000000E+00
   0.000000E+00
   0.000000E+00
   0.000000E+00
   0.000000E+00
   0.000000E+00
   0.000000E+00
   0.000000E+00
   0.000000E+00
   0.000000E+00
   0.000000E+00
   0.000000E+00
   0.000000E+00
   0.000000E+00
   0.000000E+00
   0.000000E+00
   0.000000E+00
   0.000000E+00
   0.000000E+00
   0.000000E+00
   0.000000E+00
   0.000000E+00
   0.000000E+00
   0.000000E+00
   0.000000E+00
   0.000000E+00
   0.000000E+00
   0.000000E+00
   0.000000E+00
   0.000000E+00