# vtk DataFile Version 2.0
This file was created by Fortran
ASCII
DATASET UNSTRUCTURED_GRID
POINTS  1138  DOUBLE
  -0.329000E+00   0.184400E+00  -0.328200E+00
  -0.426100E+00   0.182100E+00  -0.187800E+00
  -0.187800E+00   0.182100E+00  -0.426100E+00
  -0.326800E+00   0.328600E+00  -0.187600E+00
  -0.187600E+00   0.328600E+00  -0.326800E+00
  -0.404500E+00   0.000000E+00  -0.293900E+00
  -0.293900E+00   0.000000E+00  -0.404500E+00
  -0.475500E+00   0.000000E+00  -0.154500E+00
  -0.154500E+00   0.000000E+00  -0.475500E+00
  -0.182200E+00   0.428500E+00  -0.182200E+00
  -0.404500E+00   0.293900E+00   0.000000E+00
   0.000000E+00   0.293900E+00  -0.404500E+00
  -0.475500E+00   0.154500E+00   0.000000E+00
   0.000000E+00   0.154500E+00  -0.475500E+00
  -0.328600E+00  -0.184500E+00  -0.328600E+00
  -0.293900E+00   0.404500E+00   0.000000E+00
   0.000000E+00   0.404500E+00  -0.293900E+00
  -0.426100E+00  -0.182100E+00  -0.187700E+00
  -0.187700E+00  -0.182100E+00  -0.426100E+00
  -0.500000E+00   0.000000E+00   0.000000E+00
   0.000000E+00   0.000000E+00  -0.500000E+00
  -0.154500E+00   0.475500E+00   0.000000E+00
   0.000000E+00   0.475500E+00  -0.154500E+00
  -0.475500E+00  -0.154500E+00   0.000000E+00
   0.000000E+00  -0.154500E+00  -0.475500E+00
  -0.426100E+00   0.182100E+00   0.187800E+00
   0.187800E+00   0.182100E+00  -0.426100E+00
  -0.326800E+00  -0.328600E+00  -0.187600E+00
  -0.187600E+00  -0.328600E+00  -0.326800E+00
  -0.326800E+00   0.328600E+00   0.187600E+00
   0.187600E+00   0.328600E+00  -0.326800E+00
  -0.475500E+00   0.000000E+00   0.154500E+00
   0.154500E+00   0.000000E+00  -0.475500E+00
   0.000000E+00   0.500000E+00   0.000000E+00
  -0.182200E+00   0.428500E+00   0.182200E+00
  -0.404500E+00  -0.293900E+00   0.000000E+00
   0.182200E+00   0.428500E+00  -0.182200E+00
   0.000000E+00  -0.293900E+00  -0.404500E+00
  -0.426100E+00  -0.182100E+00   0.187700E+00
   0.187700E+00  -0.182100E+00  -0.426100E+00
  -0.182200E+00  -0.428500E+00  -0.182200E+00
   0.000000E+00   0.475500E+00   0.154500E+00
   0.154500E+00   0.475500E+00   0.000000E+00
  -0.404500E+00   0.000000E+00   0.293900E+00
   0.293900E+00   0.000000E+00  -0.404500E+00
  -0.328200E+00   0.184400E+00   0.329000E+00
   0.329000E+00   0.184400E+00  -0.328200E+00
  -0.293900E+00  -0.404500E+00   0.000000E+00
   0.000000E+00  -0.404500E+00  -0.293900E+00
  -0.187600E+00   0.328600E+00   0.326800E+00
   0.326800E+00   0.328600E+00  -0.187600E+00
  -0.326800E+00  -0.328600E+00   0.187600E+00
   0.187600E+00  -0.328600E+00  -0.326800E+00
   0.000000E+00   0.404500E+00   0.293900E+00
   0.293900E+00   0.404500E+00   0.000000E+00
  -0.328600E+00  -0.184500E+00   0.328600E+00
   0.328600E+00  -0.184500E+00  -0.328600E+00
  -0.293900E+00   0.000000E+00   0.404500E+00
   0.404500E+00   0.000000E+00  -0.293900E+00
  -0.154500E+00  -0.475500E+00   0.000000E+00
   0.000000E+00  -0.475500E+00  -0.154500E+00
   0.182200E+00   0.428500E+00   0.182200E+00
  -0.187800E+00   0.182100E+00   0.426100E+00
   0.426100E+00   0.182100E+00  -0.187800E+00
   0.000000E+00   0.293900E+00   0.404500E+00
  -0.182200E+00  -0.428500E+00   0.182200E+00
   0.404500E+00   0.293900E+00   0.000000E+00
   0.182200E+00  -0.428500E+00  -0.182200E+00
   0.000000E+00  -0.500000E+00   0.000000E+00
  -0.154500E+00   0.000000E+00   0.475500E+00
   0.475500E+00   0.000000E+00  -0.154500E+00
  -0.187600E+00  -0.328600E+00   0.326800E+00
   0.326800E+00  -0.328600E+00  -0.187600E+00
   0.187600E+00   0.328600E+00   0.326800E+00
   0.326800E+00   0.328600E+00   0.187600E+00
  -0.187700E+00  -0.182100E+00   0.426100E+00
   0.426100E+00  -0.182100E+00  -0.187700E+00
   0.000000E+00   0.154500E+00   0.475500E+00
   0.475500E+00   0.154500E+00   0.000000E+00
   0.000000E+00  -0.475500E+00   0.154500E+00
   0.154500E+00  -0.475500E+00   0.000000E+00
   0.000000E+00   0.000000E+00   0.500000E+00
   0.500000E+00   0.000000E+00   0.000000E+00
   0.187800E+00   0.182100E+00   0.426100E+00
   0.426100E+00   0.182100E+00   0.187800E+00
   0.000000E+00  -0.404500E+00   0.293900E+00
   0.293900E+00  -0.404500E+00   0.000000E+00
   0.329000E+00   0.184400E+00   0.328200E+00
   0.000000E+00  -0.154500E+00   0.475500E+00
   0.475500E+00  -0.154500E+00   0.000000E+00
   0.000000E+00  -0.293900E+00   0.404500E+00
   0.404500E+00  -0.293900E+00   0.000000E+00
   0.182200E+00  -0.428500E+00   0.182200E+00
   0.154500E+00   0.000000E+00   0.475500E+00
   0.475500E+00   0.000000E+00   0.154500E+00
   0.293900E+00   0.000000E+00   0.404500E+00
   0.404500E+00   0.000000E+00   0.293900E+00
   0.187600E+00  -0.328600E+00   0.326800E+00
   0.326800E+00  -0.328600E+00   0.187600E+00
   0.187700E+00  -0.182100E+00   0.426100E+00
   0.426100E+00  -0.182100E+00   0.187700E+00
   0.328600E+00  -0.184500E+00   0.328600E+00
  -0.409917E+00   0.182483E+00  -0.211200E+00
  -0.377550E+00   0.183250E+00  -0.258000E+00
  -0.345183E+00   0.184017E+00  -0.304800E+00
  -0.395063E+00   0.230500E-01  -0.298187E+00
  -0.376188E+00   0.691500E-01  -0.306762E+00
  -0.357313E+00   0.115250E+00  -0.315337E+00
  -0.338438E+00   0.161350E+00  -0.323912E+00
  -0.298287E+00   0.230500E-01  -0.394962E+00
  -0.307063E+00   0.691500E-01  -0.375887E+00
  -0.315837E+00   0.115250E+00  -0.356812E+00
  -0.324612E+00   0.161350E+00  -0.337737E+00
  -0.211333E+00   0.182483E+00  -0.409783E+00
  -0.258400E+00   0.183250E+00  -0.377150E+00
  -0.305467E+00   0.184017E+00  -0.344517E+00
  -0.327075E+00   0.310575E+00  -0.205175E+00
  -0.327625E+00   0.274525E+00  -0.240325E+00
  -0.328175E+00   0.238475E+00  -0.275475E+00
  -0.328725E+00   0.202425E+00  -0.310625E+00
  -0.205275E+00   0.310575E+00  -0.326975E+00
  -0.240625E+00   0.274525E+00  -0.327325E+00
  -0.275975E+00   0.238475E+00  -0.327675E+00
  -0.311325E+00   0.202425E+00  -0.328025E+00
  -0.467267E+00   0.159100E+00  -0.313000E-01
  -0.450800E+00   0.168300E+00  -0.939000E-01
  -0.434333E+00   0.177500E+00  -0.156500E+00
  -0.467267E+00   0.303500E-01  -0.160050E+00
  -0.450800E+00   0.910500E-01  -0.171150E+00
  -0.434333E+00   0.151750E+00  -0.182250E+00
  -0.407200E+00   0.227625E-01  -0.280637E+00
  -0.412600E+00   0.682875E-01  -0.254112E+00
  -0.418000E+00   0.113813E+00  -0.227587E+00
  -0.423400E+00   0.159337E+00  -0.201062E+00
  -0.343350E+00   0.304183E+00  -0.187633E+00
  -0.376450E+00   0.255350E+00  -0.187700E+00
  -0.409550E+00   0.206517E+00  -0.187767E+00
  -0.407200E+00   0.279925E+00  -0.234750E-01
  -0.412600E+00   0.251975E+00  -0.704250E-01
  -0.418000E+00   0.224025E+00  -0.117375E+00
  -0.423400E+00   0.196075E+00  -0.164325E+00
  -0.280637E+00   0.227625E-01  -0.407200E+00
  -0.254112E+00   0.682875E-01  -0.412600E+00
  -0.227587E+00   0.113813E+00  -0.418000E+00
  -0.201062E+00   0.159337E+00  -0.423400E+00
  -0.160050E+00   0.303500E-01  -0.467267E+00
  -0.171150E+00   0.910500E-01  -0.450800E+00
  -0.182250E+00   0.151750E+00  -0.434333E+00
  -0.187633E+00   0.304183E+00  -0.343350E+00
  -0.187700E+00   0.255350E+00  -0.376450E+00
  -0.187767E+00   0.206517E+00  -0.409550E+00
  -0.234750E-01   0.279925E+00  -0.407200E+00
  -0.704250E-01   0.251975E+00  -0.412600E+00
  -0.117375E+00   0.224025E+00  -0.418000E+00
  -0.164325E+00   0.196075E+00  -0.423400E+00
  -0.313000E-01   0.159100E+00  -0.467267E+00
  -0.939000E-01   0.168300E+00  -0.450800E+00
  -0.156500E+00   0.177500E+00  -0.434333E+00
  -0.394788E+00   0.298237E+00  -0.234500E-01
  -0.375362E+00   0.306912E+00  -0.703500E-01
  -0.355938E+00   0.315588E+00  -0.117250E+00
  -0.336512E+00   0.324263E+00  -0.164150E+00
  -0.210800E+00   0.328600E+00  -0.303600E+00
  -0.257200E+00   0.328600E+00  -0.257200E+00
  -0.303600E+00   0.328600E+00  -0.210800E+00
  -0.206300E+00   0.411850E+00  -0.183100E+00
  -0.254500E+00   0.378550E+00  -0.184900E+00
  -0.302700E+00   0.345250E+00  -0.186700E+00
  -0.298013E+00   0.395013E+00  -0.234500E-01
  -0.306237E+00   0.376038E+00  -0.703500E-01
  -0.314462E+00   0.357063E+00  -0.117250E+00
  -0.322688E+00   0.338088E+00  -0.164150E+00
  -0.183100E+00   0.411850E+00  -0.206300E+00
  -0.184900E+00   0.378550E+00  -0.254500E+00
  -0.186700E+00   0.345250E+00  -0.302700E+00
  -0.234500E-01   0.298237E+00  -0.394788E+00
  -0.703500E-01   0.306912E+00  -0.375362E+00
  -0.117250E+00   0.315588E+00  -0.355938E+00
  -0.164150E+00   0.324263E+00  -0.336512E+00
  -0.234500E-01   0.395013E+00  -0.298013E+00
  -0.703500E-01   0.376038E+00  -0.306237E+00
  -0.117250E+00   0.357063E+00  -0.314462E+00
  -0.164150E+00   0.338088E+00  -0.322688E+00
  -0.312333E+00   0.000000E+00  -0.386067E+00
  -0.349200E+00   0.000000E+00  -0.349200E+00
  -0.386067E+00   0.000000E+00  -0.312333E+00
  -0.423400E+00  -0.159338E+00  -0.200975E+00
  -0.418000E+00  -0.113813E+00  -0.227525E+00
  -0.412600E+00  -0.682875E-01  -0.254075E+00
  -0.407200E+00  -0.227625E-01  -0.280625E+00
  -0.463667E+00   0.000000E+00  -0.177733E+00
  -0.440000E+00   0.000000E+00  -0.224200E+00
  -0.416333E+00   0.000000E+00  -0.270667E+00
  -0.338087E+00  -0.161438E+00  -0.324263E+00
  -0.357063E+00  -0.115313E+00  -0.315588E+00
  -0.376038E+00  -0.691875E-01  -0.306913E+00
  -0.395012E+00  -0.230625E-01  -0.298237E+00
  -0.177733E+00   0.000000E+00  -0.463667E+00
  -0.224200E+00   0.000000E+00  -0.440000E+00
  -0.270667E+00   0.000000E+00  -0.416333E+00
  -0.324263E+00  -0.161438E+00  -0.338087E+00
  -0.315588E+00  -0.115313E+00  -0.357063E+00
  -0.306913E+00  -0.691875E-01  -0.376038E+00
  -0.298237E+00  -0.230625E-01  -0.395012E+00
  -0.200975E+00  -0.159338E+00  -0.423400E+00
  -0.227525E+00  -0.113813E+00  -0.418000E+00
  -0.254075E+00  -0.682875E-01  -0.412600E+00
  -0.280625E+00  -0.227625E-01  -0.407200E+00
  -0.475500E+00  -0.135187E+00  -0.193125E-01
  -0.475500E+00  -0.965625E-01  -0.579375E-01
[...]
POINT_DATA  1138
SCALARS  vx_strength  double
LOOKUP_TABLE default
   0.000000E+00
   0.000000E+00
   0.000000E+00
   0.000000E+00
   0.000000E+00
   0.000000E+00
   0.000000E+00
   0.000000E+00
   0.000000E+00
   0.000000E+00
   0.000000E+00
   0.000000E+00
   0.000000E+00
   0.000000E+00
   0.000000E+00
   0.000000E+00
   0.000000E+00
   0.000000E+00
   0.000000E+00
   0.000000E+00
   0.000000E+00
   0.000000E+00
   0.000000E+00
   0.000000E+00
   0.000000E+00
   0.000000E+00
   0.000000E+00
   0.000000E+00
   0.000000E+00
   0.000000E+00
   0.000000E+00
   0.000000E+00
   0.000000E+00
   0.000000E+00
   0.000000E+00
   0.000000E+00
   0.000000E+00
   0.000000E+00
   0.000000E+00
   0.000000E+00
   0.000000E+00
   0.000000E+00
   0.000000E+00
   0.000000E+00
   0.000000E+00
   0.000000E+00
   0.000000E+00
   0.000000E+00
   0.000000E+00
   0.000000E+00
   0.000000E+00
   0.000000E+00
   0.000000E+00
   0.000000E+00
   0.000000E+00
   0.000000E+00
   0.000000E+00
   0.000000E+00
   0.000000E+00
   0.000000E+00
   0.000000E+00
   0.000000E+00
   0.000000E+00
   0.000000E+00
   0.000000E+00
   0.000000E+00
   0.000000E+00
   0.000000E+00
   0.000000E+00
   0.000000E+00
   0.000000E+00
   0.000000E+00
   0.000000E+00
   0.000000E+00
   0.000000E+00
   0.000000E+00
   0.000000E+00
   0.000000E+00
   0.000000E+00
   0.000000E+00
   0.000000E+00
   0.000000E+00
   0.000000E+00
   0.000000E+00
   0.000000E+00
   0.000000E+00
   0.000000E+00
   0.000000E+00
   0.000000E+00
   0.000000E+00
   0.000000E+00
   0.000000E+00
   0.000000E+00
   0.000000E+00
   0.000000E+00
   0.000000E+00
   0.000000E+00
   0.000000E+00
   0.000000E+00
   0.000000E+00
   0.000000E+00
   0.000000E+00
   0.698308E-03
   0.698308E-03
   0.698308E-03
   0.660905E-03
   0.660905E-03
   0.660905E-03
   0.660905E-03
   0.120637E-02
   0.120637E-02
   0.120637E-02
   0.120637E-02
   0.261852E-04
   0.261852E-04
   0.261852E-04
   0.862974E-03
   0.862974E-03
   0.862974E-03
   0.862974E-03
   0.400772E-03
   0.400772E-03
   0.400772E-03
   0.400772E-03
   0.590568E-03
   0.590568E-03
   0.590568E-03
   0.584595E-03
   0.584595E-03
   0.584595E-03
   0.772933E-03
   0.772933E-03
   0.772933E-03
   0.772933E-03
   0.695235E-03
   0.695235E-03
   0.695235E-03
   0.834580E-03
   0.834580E-03
   0.834580E-03
   0.834580E-03
   0.183090E-03
   0.183090E-03
   0.183090E-03
   0.183090E-03
   0.179188E-02
   0.179188E-02
   0.179188E-02
   0.184116E-02
   0.184116E-02
   0.184116E-02
   0.750016E-03
   0.750016E-03
   0.750016E-03
   0.750016E-03
   0.883110E-03
   0.883110E-03
   0.883110E-03
   0.668654E-03
   0.668654E-03
   0.668654E-03
   0.668654E-03
   0.562246E-03
   0.562246E-03
   0.562246E-03
   0.801296E-04
   0.801296E-04
   0.801296E-04
   0.118613E-02
   0.118613E-02
   0.118613E-02
   0.118613E-02
   0.180621E-02
   0.180621E-02
   0.180621E-02
   0.557556E-03
   0.557556E-03
   0.557556E-03
   0.557556E-03
   0.567130E-03
   0.567130E-03
   0.567130E-03
   0.567130E-03
   0.230763E-04
   0.230763E-04
   0.230763E-04
   0.803574E-03
   0.803574E-03
   0.803574E-03
   0.803574E-03
   0.485867E-05
   0.485867E-05
   0.485867E-05
   0.659933E-03
   0.659933E-03
   0.659933E-03
   0.659933E-03
   0.130383E-04
   0.130383E-04
   0.130383E-04
   0.114393E-02
   0.114393E-02
   0.114393E-02
   0.114393E-02
   0.237473E-03
   0.237473E-03
   0.237473E-03
   0.237473E-03
   0.417710E-03
   0.417710E-03
   0.417710E-03
   0.417710E-03
   0.412684E-03
   0.412684E-03
   0.412684E-03
   0.412684E-03
   0.573646E-03
   0.573646E-03
   0.573646E-03
   0.759331E-06
   0.759331E-06
   0.759331E-06
   0.151461E-04
   0.151461E-04
   0.151461E-04
   0.181745E-02
   0.181745E-02
   0.181745E-02
   0.587917E-03
   0.587917E-03
   0.587917E-03
   0.587917E-03
   0.607722E-03
   0.607722E-03
   0.607722E-03
   0.607722E-03
   0.202286E-03
   0.202286E-03
   0.202286E-03
   0.202286E-03
   0.781359E-03
   0.781359E-03
   0.781359E-03
   0.781359E-03
   0.188690E-02
   0.188690E-02
   0.188690E-02
   0.100644E-02
   0.100644E-02
   0.100644E-02
   0.225581E-05
   0.225581E-05
   0.225581E-05
   0.668799E-03
   0.668799E-03
   0.668799E-03
   0.668799E-03
   0.834340E-03
   0.834340E-03
   0.834340E-03
   0.834340E-03
   0.233800E-05
   0.233800E-05
   0.233800E-05
   0.154320E-02
   0.154320E-02
   0.154320E-02
   0.177046E-02
   0.177046E-02
   0.177046E-02
   0.155151E-02
   0.155151E-02
   0.155151E-02
   0.155151E-02
   0.137701E-02
   0.137701E-02
   0.137701E-02
   0.137701E-02
   0.591821E-03
   0.591821E-03
   0.591821E-03
   0.417637E-03
   0.417637E-03
   0.417637E-03
   0.417637E-03
   0.338997E-05
   0.338997E-05
   0.338997E-05
   0.151918E-02
   0.151918E-02
   0.151918E-02
   0.175977E-02
   0.175977E-02
   0.175977E-02
   0.135705E-02
   0.135705E-02
   0.135705E-02
   0.135705E-02
   0.686642E-03
   0.686642E-03
   0.686642E-03
   0.861431E-03
   0.861431E-03
   0.861431E-03
   0.861431E-03
   0.229668E-04
   0.229668E-04
   0.229668E-04
   0.348947E-03
   0.348947E-03
   0.348947E-03
   0.348947E-03
   0.794799E-05
   0.794799E-05
   0.794799E-05
   0.211623E-03
   0.211623E-03
   0.211623E-03
   0.211623E-03
   0.118282E-02
   0.118282E-02
   0.118282E-02
   0.118282E-02
   0.185942E-02
   0.185942E-02
   0.185942E-02
   0.136474E-02
   0.136474E-02
   0.136474E-02
   0.136474E-02
   0.157074E-02
   0.157074E-02
   0.157074E-02
   0.157074E-02
   0.592616E-03
   0.592616E-03
   0.592616E-03
   0.830105E-03
   0.830105E-03
   0.830105E-03
   0.830105E-03
   0.706686E-03
   0.706686E-03
   0.706686E-03
   0.191009E-02
   0.191009E-02
   0.191009E-02
   0.935160E-03
   0.935160E-03
   0.935160E-03
   0.776489E-03
   0.776489E-03
   0.776489E-03
   0.776489E-03
   0.332449E-06
   0.332449E-06
   0.332449E-06
   0.229819E-05
   0.229819E-05
   0.229819E-05
   0.114209E-04
   0.114209E-04
   0.114209E-04
   0.151546E-02
   0.151546E-02
   0.151546E-02
   0.346550E-06
   0.346550E-06
   0.346550E-06
   0.700769E-03
   0.700769E-03
   0.700769E-03
   0.700769E-03
   0.187623E-02
   0.187623E-02
   0.187623E-02
   0.701269E-03
   0.701269E-03
   0.701269E-03
   0.701269E-03
   0.154184E-02
   0.154184E-02
   0.154184E-02
   0.177277E-02
   0.177277E-02
   0.177277E-02
   0.136076E-02
   0.136076E-02
   0.136076E-02
   0.136076E-02
   0.417071E-03
   0.417071E-03
   0.417071E-03
   0.417071E-03
   0.591807E-03
   0.591807E-03
   0.591807E-03
   0.158769E-05
   0.158769E-05
   0.158769E-05
   0.137279E-02
   0.137279E-02
   0.137279E-02
   0.137279E-02
   0.178518E-02
   0.178518E-02
   0.178518E-02
   0.177207E-02
   0.177207E-02
   0.177207E-02
   0.685849E-03
   0.685849E-03
   0.685849E-03
   0.808920E-03
   0.808920E-03
   0.808920E-03
   0.808920E-03
   0.576517E-03
   0.576517E-03
   0.576517E-03
   0.709462E-03
   0.709462E-03
   0.709462E-03
   0.541901E-03
   0.541901E-03
   0.541901E-03
   0.486203E-03
   0.486203E-03
   0.486203E-03
   0.697957E-03
   0.697957E-03
   0.697957E-03
   0.697957E-03
   0.768047E-03
   0.768047E-03
   0.768047E-03
   0.669624E-03
   0.669624E-03
   0.669624E-03
   0.669624E-03
   0.118571E-02
   0.118571E-02
   0.118571E-02
   0.118571E-02
   0.558597E-03
   0.558597E-03
   0.558597E-03
   0.848192E-04
   0.848192E-04
   0.848192E-04
   0.180428E-02
   0.180428E-02
   0.180428E-02
   0.570839E-03
   0.570839E-03
   0.570839E-03
   0.570839E-03
   0.567931E-03
   0.567931E-03
   0.567931E-03
   0.567931E-03
   0.559538E-03
   0.559538E-03
   0.559538E-03
   0.856383E-03
   0.856383E-03
   0.856383E-03
   0.856383E-03
   0.850654E-04
   0.850654E-04
   0.850654E-04
   0.614763E-03
   0.614763E-03
   0.614763E-03
   0.866061E-03
   0.866061E-03
   0.866061E-03
   0.866061E-03
   0.121847E-02
   0.121847E-02
   0.121847E-02
   0.576691E-03
   0.576691E-03
   0.576691E-03
   0.194280E-05
   0.194280E-05
   0.194280E-05
   0.751191E-05
   0.751191E-05
   0.751191E-05
   0.499772E-03
   0.499772E-03
   0.499772E-03
   0.126232E-04
   0.126232E-04
   0.126232E-04
   0.155481E-02
   0.155481E-02
   0.155481E-02
   0.793598E-03
   0.793598E-03
   0.793598E-03
   0.793598E-03
   0.180915E-02
   0.180915E-02
   0.180915E-02
   0.101270E-02
   0.101270E-02
   0.101270E-02
   0.834062E-03
   0.834062E-03
   0.834062E-03
   0.834062E-03
   0.669088E-03
   0.669088E-03
   0.669088E-03
   0.669088E-03
   0.163002E-05
   0.163002E-05
   0.163002E-05
   0.506576E-03
   0.506576E-03
   0.506576E-03
   0.844309E-03
   0.844309E-03
   0.844309E-03
   0.707506E-03
   0.707506E-03
   0.707506E-03
   0.707506E-03
   0.155639E-02
   0.155639E-02
   0.155639E-02
   0.155639E-02
   0.154297E-02
   0.154297E-02
   0.154297E-02
   0.137922E-02
   0.137922E-02
   0.137922E-02
   0.137922E-02
   0.801454E-03
   0.801454E-03
   0.801454E-03
   0.801454E-03
   0.689563E-03
   0.689563E-03
   0.689563E-03
   0.706631E-03
   0.706631E-03
   0.706631E-03
   0.703588E-03
   0.703588E-03
   0.703588E-03
   0.703588E-03
   0.544269E-03
   0.544269E-03
   0.544269E-03
   0.767739E-03
   0.767739E-03
   0.767739E-03
   0.203088E-03
   0.203088E-03
   0.203088E-03
   0.203088E-03
   0.188419E-02
   0.188419E-02
   0.188419E-02
   0.786457E-03
   0.786457E-03
   0.786457E-03
   0.786457E-03
   0.100770E-02
   0.100770E-02
   0.100770E-02
   0.137720E-02
   0.137720E-02
   0.137720E-02
   0.137720E-02
   0.187108E-02
   0.187108E-02
   0.187108E-02
   0.178342E-02
   0.178342E-02
   0.178342E-02
   0.362777E-05
   0.362777E-05
   0.362777E-05
   0.514719E-03
   0.514719E-03
   0.514719E-03
   0.648390E-03
   0.648390E-03
   0.648390E-03
   0.648390E-03
   0.643710E-03
   0.643710E-03
   0.643710E-03
   0.643710E-03
   0.353456E-06
   0.353456E-06
   0.353456E-06
   0.853024E-06
   0.853024E-06
   0.853024E-06
   0.666365E-03
   0.666365E-03
   0.666365E-03
   0.666365E-03
   0.667184E-03
   0.667184E-03
   0.667184E-03
   0.667184E-03
   0.275519E-04
   0.275519E-04
   0.275519E-04
   0.115320E-02
   0.115320E-02
   0.115320E-02
   0.115320E-02
   0.356036E-03
   0.356036E-03
   0.356036E-03
   0.356036E-03
   0.602531E-03
   0.602531E-03
   0.602531E-03
   0.602531E-03
   0.616334E-03
   0.616334E-03
   0.616334E-03
   0.616334E-03
   0.548474E-03
   0.548474E-03
   0.548474E-03
   0.118247E-02
   0.118247E-02
   0.118247E-02
   0.118247E-02
   0.211421E-03
   0.211421E-03
   0.211421E-03
   0.211421E-03
   0.641982E-05
   0.641982E-05
   0.641982E-05
   0.136254E-02
   0.136254E-02
   0.136254E-02
   0.136254E-02
   0.186327E-02
   0.186327E-02
   0.186327E-02
   0.156839E-02
   0.156839E-02
   0.156839E-02
   0.156839E-02
   0.571259E-03
   0.571259E-03
   0.571259E-03
   0.571259E-03
   0.190481E-02
   0.190481E-02
   0.190481E-02
   0.570343E-03
   0.570343E-03
   0.570343E-03
   0.570343E-03
   0.697056E-03
   0.697056E-03
   0.697056E-03
   0.697056E-03
   0.586078E-03
   0.586078E-03
   0.586078E-03
   0.641953E-03
   0.641953E-03
   0.641953E-03
   0.641953E-03
   0.857396E-03
   0.857396E-03
   0.857396E-03
   0.857396E-03
   0.556791E-03
   0.556791E-03
   0.556791E-03
   0.827709E-04
   0.827709E-04
   0.827709E-04
   0.867588E-03
   0.867588E-03
   0.867588E-03
   0.867588E-03
   0.605214E-03
   0.605214E-03
   0.605214E-03
   0.121471E-02
   0.121471E-02
   0.121471E-02
   0.157378E-02
   0.157378E-02
   0.157378E-02
   0.157378E-02
   0.154265E-02
   0.154265E-02
   0.154265E-02
   0.136408E-02
   0.136408E-02
   0.136408E-02
   0.136408E-02
   0.775814E-07
   0.775814E-07
   0.775814E-07
   0.696766E-03
   0.696766E-03
   0.696766E-03
   0.696766E-03
   0.711630E-03
   0.711630E-03
   0.711630E-03
   0.711630E-03
   0.115303E-02
   0.115303E-02
   0.115303E-02
   0.115303E-02
   0.311400E-04
   0.311400E-04
   0.311400E-04
   0.355181E-03
   0.355181E-03
   0.355181E-03
   0.355181E-03
   0.618850E-03
   0.618850E-03
   0.618850E-03
   0.618850E-03
   0.604098E-03
   0.604098E-03
   0.604098E-03
   0.604098E-03
   0.551006E-03
   0.551006E-03
   0.551006E-03
   0.232736E-03
   0.232736E-03
   0.232736E-03
   0.232736E-03
   0.224980E-03
   0.224980E-03
   0.224980E-03
   0.224980E-03
   0.523865E-05
   0.523865E-05
   0.523865E-05
   0.219872E-05
   0.219872E-05
   0.219872E-05
   0.925277E-03
   0.925277E-03
   0.925277E-03
   0.925277E-03
   0.926949E-03
   0.926949E-03
   0.926949E-03
   0.926949E-03
   0.187687E-02
   0.187687E-02
   0.187687E-02
   0.701136E-03
   0.701136E-03
   0.701136E-03
   0.701136E-03
   0.700505E-03
   0.700505E-03
   0.700505E-03
   0.700505E-03
   0.205634E-06
   0.205634E-06
   0.205634E-06
   0.177533E-02
   0.177533E-02
   0.177533E-02
   0.154147E-02
   0.154147E-02
   0.154147E-02
   0.136039E-02
   0.136039E-02
   0.136039E-02
   0.136039E-02
   0.612933E-03
   0.612933E-03
   0.612933E-03
   0.845986E-03
   0.845986E-03
   0.845986E-03
   0.926154E-03
   0.926154E-03
   0.926154E-03
   0.182581E-02
   0.182581E-02
   0.182581E-02
   0.774285E-03
   0.774285E-03
   0.774285E-03
   0.774285E-03
   0.947069E-03
   0.947069E-03
   0.947069E-03
   0.947069E-03
   0.787134E-03
   0.787134E-03
   0.787134E-03
   0.800846E-03
   0.800846E-03
   0.800846E-03
   0.137797E-02
   0.137797E-02
   0.137797E-02
   0.137797E-02
   0.177781E-02
   0.177781E-02
   0.177781E-02
   0.155120E-02
   0.155120E-02
   0.155120E-02
   0.155120E-02
   0.181221E-02
   0.181221E-02
   0.181221E-02
   0.796428E-03
   0.796428E-03
   0.796428E-03
   0.796428E-03
   0.101561E-02
   0.101561E-02
   0.101561E-02
   0.739697E-06
   0.739697E-06
   0.739697E-06
   0.947650E-03
   0.947650E-03
   0.947650E-03
   0.947650E-03
   0.642063E-03
   0.642063E-03
   0.642063E-03
   0.642063E-03
   0.841825E-03
   0.841825E-03
   0.841825E-03
   0.504978E-03
   0.504978E-03
   0.504978E-03
   0.708107E-03
   0.708107E-03
   0.708107E-03
   0.708107E-03
   0.155388E-02
   0.155388E-02
   0.155388E-02
   0.122054E-04
   0.122054E-04
   0.122054E-04
   0.602898E-03
   0.602898E-03
   0.602898E-03
   0.602898E-03
   0.182448E-02
   0.182448E-02
   0.182448E-02
   0.602981E-03
   0.602981E-03
   0.602981E-03
   0.602981E-03
   0.436500E-05
   0.436500E-05
   0.436500E-05
   0.524319E-06
   0.524319E-06
   0.524319E-06
   0.782461E-03
   0.782461E-03
   0.782461E-03
   0.582392E-03
   0.582392E-03
   0.582392E-03
   0.582392E-03
   0.583475E-03
   0.583475E-03
   0.583475E-03
   0.583475E-03
   0.190865E-02
   0.190865E-02
   0.190865E-02
   0.568901E-03
   0.568901E-03
   0.568901E-03
   0.568901E-03
   0.566429E-03
   0.566429E-03
   0.566429E-03
   0.566429E-03
   0.585110E-03
   0.585110E-03
   0.585110E-03
   0.697003E-03
   0.697003E-03
   0.697003E-03
   0.697003E-03
   0.641368E-03
   0.641368E-03
   0.641368E-03
   0.641368E-03
   0.541252E-03
   0.541252E-03
   0.541252E-03
   0.122247E-02
   0.122247E-02
   0.122247E-02
   0.868556E-03
   0.868556E-03
   0.868556E-03
   0.868556E-03
   0.600673E-03
   0.600673E-03
   0.600673E-03
   0.600673E-03
   0.586146E-03
   0.586146E-03
   0.586146E-03
   0.930073E-03
   0.930073E-03
   0.930073E-03
   0.777595E-03
   0.777595E-03
   0.777595E-03
   0.777595E-03
   0.798951E-03
   0.798951E-03
   0.798951E-03
   0.946872E-03
   0.946872E-03
   0.946872E-03
   0.946872E-03
   0.150628E-02
   0.150628E-02
   0.150628E-02
   0.176545E-02
   0.176545E-02
   0.176545E-02
   0.136147E-02
   0.136147E-02
   0.136147E-02
   0.136147E-02
   0.574621E-06
   0.574621E-06
   0.574621E-06
   0.581460E-03
   0.581460E-03
   0.581460E-03
   0.581460E-03
   0.800313E-03
   0.800313E-03
   0.800313E-03
   0.187139E-02
   0.187139E-02
   0.187139E-02
   0.178123E-02
   0.178123E-02
   0.178123E-02
   0.137616E-02
   0.137616E-02
   0.137616E-02
   0.137616E-02
   0.512348E-03
   0.512348E-03
   0.512348E-03
   0.321975E-05
   0.321975E-05
   0.321975E-05
   0.151123E-02
   0.151123E-02
   0.151123E-02
   0.931613E-05
   0.931613E-05
   0.931613E-05
   0.207321E-05
   0.207321E-05
   0.207321E-05
   0.212351E-05
   0.212351E-05
   0.212351E-05
   0.494941E-03
   0.494941E-03
   0.494941E-03
   0.769399E-03
   0.769399E-03
   0.769399E-03
   0.702141E-03
   0.702141E-03
   0.702141E-03
   0.702141E-03
   0.917281E-03
   0.917281E-03
   0.917281E-03
   0.917281E-03
   0.552975E-03
   0.552975E-03
   0.552975E-03
   0.791952E-03
   0.791952E-03
   0.791952E-03
   0.154044E-02
   0.154044E-02
   0.154044E-02
   0.136241E-02
   0.136241E-02
   0.136241E-02
   0.136241E-02
   0.156769E-02
   0.156769E-02
   0.156769E-02
   0.156769E-02
   0.711923E-03
   0.711923E-03
   0.711923E-03
   0.711923E-03
   0.697414E-03
   0.697414E-03
   0.697414E-03
   0.697414E-03
   0.898492E-06
   0.898492E-06
   0.898492E-06
   0.668088E-03
   0.668088E-03
   0.668088E-03
   0.668088E-03
   0.618052E-03
   0.618052E-03
   0.618052E-03
   0.618052E-03
   0.137485E-02
   0.137485E-02
   0.137485E-02
   0.137485E-02
   0.178668E-02
   0.178668E-02
   0.178668E-02
   0.178102E-02
   0.178102E-02
   0.178102E-02
   0.364243E-05
   0.364243E-05
   0.364243E-05
   0.811994E-03
   0.811994E-03
   0.811994E-03
   0.578560E-03
   0.578560E-03
   0.578560E-03
   0.578560E-03
   0.155711E-02
   0.155711E-02
   0.155711E-02
   0.155711E-02
   0.137890E-02
   0.137890E-02
   0.137890E-02
   0.137890E-02
   0.637652E-03
   0.637652E-03
   0.637652E-03
   0.637652E-03
   0.946053E-03
   0.946053E-03
   0.946053E-03
   0.946053E-03
   0.603405E-03
   0.603405E-03
   0.603405E-03
   0.843584E-03
   0.843584E-03
   0.843584E-03
   0.762668E-05
   0.762668E-05
   0.762668E-05
   0.508458E-03
   0.508458E-03
   0.508458E-03
   0.497140E-05
   0.497140E-05
   0.497140E-05
   0.803960E-03
   0.803960E-03
   0.803960E-03
   0.273875E-05
   0.273875E-05
   0.273875E-05
   0.704222E-03
   0.704222E-03
   0.704222E-03
   0.704222E-03
   0.675898E-03
   0.675898E-03
   0.675898E-03
   0.675898E-03
   0.917911E-03
   0.917911E-03
   0.917911E-03
   0.917911E-03
   0.611116E-03
   0.611116E-03
   0.611116E-03
   0.611116E-03
   0.544498E-03
   0.544498E-03
   0.544498E-03
   0.870927E-03
   0.870927E-03
   0.870927E-03
   0.870927E-03
   0.121654E-02
   0.121654E-02
   0.121654E-02
   0.597818E-03
   0.597818E-03
   0.597818E-03
   0.597818E-03
   0.588802E-03
   0.588802E-03
   0.588802E-03
   0.767938E-03
   0.767938E-03
   0.767938E-03
   0.555645E-03
   0.555645E-03
   0.555645E-03

SCALARS  vx_core_radius  double
LOOKUP_TABLE default
   0.000000E+00
   0.000000E+00
   0.000000E+00
   0.000000E+00
   0.000000E+00
   0.000000E+00
   0.000000E+00
   0.000000E+00
   0.000000E+00
   0.000000E+00
   0.000000E+00
   0.000000E+00
   0.000000E+00
   0.000000E+00
   0.000000E+00
   0.000000E+00
   0.000000E+00
   0.000000E+00
   0.000000E+00
   0.000000E+00
   0.000000E+00
   0.000000E+00
   0.000000E+00
   0.000000E+00
   0.000000E+00
   0.000000E+00
   0.000000E+00
   0.000000E+00
   0.000000E+00
   0.000000E+00
   0.000000E+00