# vtk DataFile Version 2.0
This file was created by Fortran
ASCII
DATASET UNSTRUCTURED_GRID
POINTS  1138  DOUBLE
  -0.329000E+00   0.184400E+00  -0.328200E+00
  -0.426100E+00   0.182100E+00  -0.187800E+00
  -0.187800E+00   0.182100E+00  -0.426100E+00
  -0.326800E+00   0.328600E+00  -0.187600E+00
  -0.187600E+00   0.328600E+00  -0.326800E+00
  -0.404500E+00   0.000000E+00  -0.293900E+00
  -0.293900E+00   0.000000E+00  -0.404500E+00
  -0.475500E+00   0.000000E+00  -0.154500E+00
  -0.154500E+00   0.000000E+00  -0.475500E+00
  -0.182200E+00   0.428500E+00  -0.182200E+00
  -0.404500E+00   0.293900E+00   0.000000E+00
   0.000000E+00   0.293900E+00  -0.404500E+00
  -0.475500E+00   0.154500E+00   0.000000E+00
   0.000000E+00   0.154500E+00  -0.475500E+00
  -0.328600E+00  -0.184500E+00  -0.328600E+00
  -0.293900E+00   0.404500E+00   0.000000E+00
   0.000000E+00   0.404500E+00  -0.293900E+00
  -0.426100E+00  -0.182100E+00  -0.187700E+00
  -0.187700E+00  -0.182100E+00  -0.426100E+00
  -0.500000E+00   0.000000E+00   0.000000E+00
   0.000000E+00   0.000000E+00  -0.500000E+00
  -0.154500E+00   0.475500E+00   0.000000E+00
   0.000000E+00   0.475500E+00  -0.154500E+00
  -0.475500E+00  -0.154500E+00   0.000000E+00
   0.000000E+00  -0.154500E+00  -0.475500E+00
  -0.426100E+00   0.182100E+00   0.187800E+00
   0.187800E+00   0.182100E+00  -0.426100E+00
  -0.326800E+00  -0.328600E+00  -0.187600E+00
  -0.187600E+00  -0.328600E+00  -0.326800E+00
  -0.326800E+00   0.328600E+00   0.187600E+00
   0.187600E+00   0.328600E+00  -0.326800E+00
  -0.475500E+00   0.000000E+00   0.154500E+00
   0.154500E+00   0.000000E+00  -0.475500E+00
   0.000000E+00   0.500000E+00   0.000000E+00
  -0.182200E+00   0.428500E+00   0.182200E+00
  -0.404500E+00  -0.293900E+00   0.000000E+00
   0.182200E+00   0.428500E+00  -0.182200E+00
   0.000000E+00  -0.293900E+00  -0.404500E+00
  -0.426100E+00  -0.182100E+00   0.187700E+00
   0.187700E+00  -0.182100E+00  -0.426100E+00
  -0.182200E+00  -0.428500E+00  -0.182200E+00
   0.000000E+00   0.475500E+00   0.154500E+00
   0.154500E+00   0.475500E+00   0.000000E+00
  -0.404500E+00   0.000000E+00   0.293900E+00
   0.293900E+00   0.000000E+00  -0.404500E+00
  -0.328200E+00   0.184400E+00   0.329000E+00
   0.329000E+00   0.184400E+00  -0.328200E+00
  -0.293900E+00  -0.404500E+00   0.000000E+00
   0.000000E+00  -0.404500E+00  -0.293900E+00
  -0.187600E+00   0.328600E+00   0.326800E+00
   0.326800E+00   0.328600E+00  -0.187600E+00
  -0.326800E+00  -0.328600E+00   0.187600E+00
   0.187600E+00  -0.328600E+00  -0.326800E+00
   0.000000E+00   0.404500E+00   0.293900E+00
   0.293900E+00   0.404500E+00   0.000000E+00
  -0.328600E+00  -0.184500E+00   0.328600E+00
   0.328600E+00  -0.184500E+00  -0.328600E+00
  -0.293900E+00   0.000000E+00   0.404500E+00
   0.404500E+00   0.000000E+00  -0.293900E+00
  -0.154500E+00  -0.475500E+00   0.000000E+00
   0.000000E+00  -0.475500E+00  -0.154500E+00
   0.182200E+00   0.428500E+00   0.182200E+00
  -0.187800E+00   0.182100E+00   0.426100E+00
   0.426100E+00   0.182100E+00  -0.187800E+00
   0.000000E+00   0.293900E+00   0.404500E+00
  -0.182200E+00  -0.428500E+00   0.182200E+00
   0.404500E+00   0.293900E+00   0.000000E+00
   0.182200E+00  -0.428500E+00  -0.182200E+00
   0.000000E+00  -0.500000E+00   0.000000E+00
  -0.154500E+00   0.000000E+00   0.475500E+00
   0.475500E+00   0.000000E+00  -0.154500E+00
  -0.187600E+00  -0.328600E+00   0.326800E+00
   0.326800E+00  -0.328600E+00  -0.187600E+00
   0.187600E+00   0.328600E+00   0.326800E+00
   0.326800E+00   0.328600E+00   0.187600E+00
  -0.187700E+00  -0.182100E+00   0.426100E+00
   0.426100E+00  -0.182100E+00  -0.187700E+00
   0.000000E+00   0.154500E+00   0.475500E+00
   0.475500E+00   0.154500E+00   0.000000E+00
   0.000000E+00  -0.475500E+00   0.154500E+00
   0.154500E+00  -0.475500E+00   0.000000E+00
   0.000000E+00   0.000000E+00   0.500000E+00
   0.500000E+00   0.000000E+00   0.000000E+00
   0.187800E+00   0.182100E+00   0.426100E+00
   0.426100E+00   0.182100E+00   0.187800E+00
   0.000000E+00  -0.404500E+00   0.293900E+00
   0.293900E+00  -0.404500E+00   0.000000E+00
   0.329000E+00   0.184400E+00   0.328200E+00
   0.000000E+00  -0.154500E+00   0.475500E+00
   0.475500E+00  -0.154500E+00   0.000000E+00
   0.000000E+00  -0.293900E+00   0.404500E+00
   0.404500E+00  -0.293900E+00   0.000000E+00
   0.182200E+00  -0.428500E+00   0.182200E+00
   0.154500E+00   0.000000E+00   0.475500E+00
   0.475500E+00   0.000000E+00   0.154500E+00
   0.293900E+00   0.000000E+00   0.404500E+00
   0.404500E+00   0.000000E+00   0.293900E+00
   0.187600E+00  -0.328600E+00   0.326800E+00
   0.326800E+00  -0.328600E+00   0.187600E+00
   0.187700E+00  -0.182100E+00   0.426100E+00
   0.426100E+00  -0.182100E+00   0.187700E+00
   0.328600E+00  -0.184500E+00   0.328600E+00
  -0.409917E+00   0.182483E+00  -0.211200E+00
  -0.377550E+00   0.183250E+00  -0.258000E+00
  -0.345183E+00   0.184017E+00  -0.304800E+00
  -0.395063E+00   0.230500E-01  -0.298187E+00
  -0.376188E+00   0.691500E-01  -0.306762E+00
  -0.357313E+00   0.115250E+00  -0.315337E+00
  -0.338438E+00   0.161350E+00  -0.323912E+00
  -0.298287E+00   0.230500E-01  -0.394962E+00
  -0.307063E+00   0.691500E-01  -0.375887E+00
  -0.315837E+00   0.115250E+00  -0.356812E+00
  -0.324612E+00   0.161350E+00  -0.337737E+00
  -0.211333E+00   0.182483E+00  -0.409783E+00
  -0.258400E+00   0.183250E+00  -0.377150E+00
  -0.305467E+00   0.184017E+00  -0.344517E+00
  -0.327075E+00   0.310575E+00  -0.205175E+00
  -0.327625E+00   0.274525E+00  -0.240325E+00
  -0.328175E+00   0.238475E+00  -0.275475E+00
  -0.328725E+00   0.202425E+00  -0.310625E+00
  -0.205275E+00   0.310575E+00  -0.326975E+00
  -0.240625E+00   0.274525E+00  -0.327325E+00
  -0.275975E+00   0.238475E+00  -0.327675E+00
  -0.311325E+00   0.202425E+00  -0.328025E+00
  -0.467267E+00   0.159100E+00  -0.313000E-01
  -0.450800E+00   0.168300E+00  -0.939000E-01
  -0.434333E+00   0.177500E+00  -0.156500E+00
  -0.467267E+00   0.303500E-01  -0.160050E+00
  -0.450800E+00   0.910500E-01  -0.171150E+00
  -0.434333E+00   0.151750E+00  -0.182250E+00
  -0.407200E+00   0.227625E-01  -0.280637E+00
  -0.412600E+00   0.682875E-01  -0.254112E+00
  -0.418000E+00   0.113813E+00  -0.227587E+00
  -0.423400E+00   0.159337E+00  -0.201062E+00
  -0.343350E+00   0.304183E+00  -0.187633E+00
  -0.376450E+00   0.255350E+00  -0.187700E+00
  -0.409550E+00   0.206517E+00  -0.187767E+00
  -0.407200E+00   0.279925E+00  -0.234750E-01
  -0.412600E+00   0.251975E+00  -0.704250E-01
  -0.418000E+00   0.224025E+00  -0.117375E+00
  -0.423400E+00   0.196075E+00  -0.164325E+00
  -0.280637E+00   0.227625E-01  -0.407200E+00
  -0.254112E+00   0.682875E-01  -0.412600E+00
  -0.227587E+00   0.113813E+00  -0.418000E+00
  -0.201062E+00   0.159337E+00  -0.423400E+00
  -0.160050E+00   0.303500E-01  -0.467267E+00
  -0.171150E+00   0.910500E-01  -0.450800E+00
  -0.182250E+00   0.151750E+00  -0.434333E+00
  -0.187633E+00   0.304183E+00  -0.343350E+00
  -0.187700E+00   0.255350E+00  -0.376450E+00
  -0.187767E+00   0.206517E+00  -0.409550E+00
  -0.234750E-01   0.279925E+00  -0.407200E+00
  -0.704250E-01   0.251975E+00  -0.412600E+00
  -0.117375E+00   0.224025E+00  -0.418000E+00
  -0.164325E+00   0.196075E+00  -0.423400E+00
  -0.313000E-01   0.159100E+00  -0.467267E+00
  -0.939000E-01   0.168300E+00  -0.450800E+00
  -0.156500E+00   0.177500E+00  -0.434333E+00
  -0.394788E+00   0.298237E+00  -0.234500E-01
  -0.375362E+00   0.306912E+00  -0.703500E-01
  -0.355938E+00   0.315588E+00  -0.117250E+00
  -0.336512E+00   0.324263E+00  -0.164150E+00
  -0.210800E+00   0.328600E+00  -0.303600E+00
  -0.257200E+00   0.328600E+00  -0.257200E+00
  -0.303600E+00   0.328600E+00  -0.210800E+00
  -0.206300E+00   0.411850E+00  -0.183100E+00
  -0.254500E+00   0.378550E+00  -0.184900E+00
  -0.302700E+00   0.345250E+00  -0.186700E+00
  -0.298013E+00   0.395013E+00  -0.234500E-01
  -0.306237E+00   0.376038E+00  -0.703500E-01
  -0.314462E+00   0.357063E+00  -0.117250E+00
  -0.322688E+00   0.338088E+00  -0.164150E+00
  -0.183100E+00   0.411850E+00  -0.206300E+00
  -0.184900E+00   0.378550E+00  -0.254500E+00
  -0.186700E+00   0.345250E+00  -0.302700E+00
  -0.234500E-01   0.298237E+00  -0.394788E+00
  -0.703500E-01   0.306912E+00  -0.375362E+00
  -0.117250E+00   0.315588E+00  -0.355938E+00
  -0.164150E+00   0.324263E+00  -0.336512E+00
  -0.234500E-01   0.395013E+00  -0.298013E+00
  -0.703500E-01   0.376038E+00  -0.306237E+00
  -0.117250E+00   0.357063E+00  -0.314462E+00
  -0.164150E+00   0.338088E+00  -0.322688E+00
  -0.312333E+00   0.000000E+00  -0.386067E+00
  -0.349200E+00   0.000000E+00  -0.349200E+00
  -0.386067E+00   0.000000E+00  -0.312333E+00
  -0.423400E+00  -0.159338E+00  -0.200975E+00
  -0.418000E+00  -0.113813E+00  -0.227525E+00
  -0.412600E+00  -0.682875E-01  -0.254075E+00
  -0.407200E+00  -0.227625E-01  -0.280625E+00
  -0.463667E+00   0.000000E+00  -0.177733E+00
  -0.440000E+00   0.000000E+00  -0.224200E+00
  -0.416333E+00   0.000000E+00  -0.270667E+00
  -0.338087E+00  -0.161438E+00  -0.324263E+00
  -0.357063E+00  -0.115313E+00  -0.315588E+00
  -0.376038E+00  -0.691875E-01  -0.306913E+00
  -0.395012E+00  -0.230625E-01  -0.298237E+00
  -0.177733E+00   0.000000E+00  -0.463667E+00
  -0.224200E+00   0.000000E+00  -0.440000E+00
  -0.270667E+00   0.000000E+00  -0.416333E+00
  -0.324263E+00  -0.161438E+00  -0.338087E+00
  -0.315588E+00  -0.115313E+00  -0.357063E+00
  -0.306913E+00  -0.691875E-01  -0.376038E+00
  -0.298237E+00  -0.230625E-01  -0.395012E+00
  -0.200975E+00  -0.159338E+00  -0.423400E+00
  -0.227525E+00  -0.113813E+00  -0.418000E+00
  -0.254075E+00  -0.682875E-01  -0.412600E+00
  -0.280625E+00  -0.227625E-01  -0.407200E+00
  -0.475500E+00  -0.135187E+00  -0.193125E-01
  -0.475500E+00  -0.965625E-01  -0.579375E-01
[...]
POINT_DATA  1138
SCALARS  vx_strength  double
LOOKUP_TABLE default
   0.000000E+00
   0.000000E+00
   0.000000E+00
   0.000000E+00
   0.000000E+00
   0.000000E+00
   0.000000E+00
   0.000000E+00
   0.000000E+00
   0.000000E+00
   0.000000E+00
   0.000000E+00
   0.000000E+00
   0.000000E+00
   0.000000E+00
   0.000000E+00
   0.000000E+00
   0.000000E+00
   0.000000E+00
   0.000000E+00
   0.000000E+00
   0.000000E+00
   0.000000E+00
   0.000000E+00
   0.000000E+00
   0.000000E+00
   0.000000E+00
   0.000000E+00
   0.000000E+00
   0.000000E+00
   0.000000E+00
   0.000000E+00
   0.000000E+00
   0.000000E+00
   0.000000E+00
   0.000000E+00
   0.000000E+00
   0.000000E+00
   0.000000E+00
   0.000000E+00
   0.000000E+00
   0.000000E+00
   0.000000E+00
   0.000000E+00
   0.000000E+00
   0.000000E+00
   0.000000E+00
   0.000000E+00
   0.000000E+00
   0.000000E+00
   0.000000E+00
   0.000000E+00
   0.000000E+00
   0.000000E+00
   0.000000E+00
   0.000000E+00
   0.000000E+00
   0.000000E+00
   0.000000E+00
   0.000000E+00
   0.000000E+00
   0.000000E+00
   0.000000E+00
   0.000000E+00
   0.000000E+00
   0.000000E+00
   0.000000E+00
   0.000000E+00
   0.000000E+00
   0.000000E+00
   0.000000E+00
   0.000000E+00
   0.000000E+00
   0.000000E+00
   0.000000E+00
   0.000000E+00
   0.000000E+00
   0.000000E+00
   0.000000E+00
   0.000000E+00
   0.000000E+00
   0.000000E+00
   0.000000E+00
   0.000000E+00
   0.000000E+00
   0.000000E+00
   0.000000E+00
   0.000000E+00
   0.000000E+00
   0.000000E+00
   0.000000E+00
   0.000000E+00
   0.000000E+00
   0.000000E+00
   0.000000E+00
   0.000000E+00
   0.000000E+00
   0.000000E+00
   0.000000E+00
   0.000000E+00
   0.000000E+00
   0.000000E+00
   0.653496E-03
   0.653496E-03
   0.653496E-03
   0.586871E-03
   0.586871E-03
   0.586871E-03
   0.586871E-03
   0.115395E-02
   0.115395E-02
   0.115395E-02
   0.115395E-02
   0.100460E-03
   0.100460E-03
   0.100460E-03
   0.850822E-03
   0.850822E-03
   0.850822E-03
   0.850822E-03
   0.214877E-03
   0.214877E-03
   0.214877E-03
   0.214877E-03
   0.566549E-03
   0.566549E-03
   0.566549E-03
   0.564485E-03
   0.564485E-03
   0.564485E-03
   0.745777E-03
   0.745777E-03
   0.745777E-03
   0.745777E-03
   0.660302E-03
   0.660302E-03
   0.660302E-03
   0.798587E-03
   0.798587E-03
   0.798587E-03
   0.798587E-03
   0.200392E-03
   0.200392E-03
   0.200392E-03
   0.200392E-03
   0.186459E-02
   0.186459E-02
   0.186459E-02
   0.214006E-02
   0.214006E-02
   0.214006E-02
   0.111891E-02
   0.111891E-02
   0.111891E-02
   0.111891E-02
   0.123148E-02
   0.123148E-02
   0.123148E-02
   0.607171E-03
   0.607171E-03
   0.607171E-03
   0.607171E-03
   0.334179E-03
   0.334179E-03
   0.334179E-03
   0.115371E-03
   0.115371E-03
   0.115371E-03
   0.119742E-02
   0.119742E-02
   0.119742E-02
   0.119742E-02
   0.205807E-02
   0.205807E-02
   0.205807E-02
   0.913443E-03
   0.913443E-03
   0.913443E-03
   0.913443E-03
   0.892466E-03
   0.892466E-03
   0.892466E-03
   0.892466E-03
   0.233492E-04
   0.233492E-04
   0.233492E-04
   0.766408E-03
   0.766408E-03
   0.766408E-03
   0.766408E-03
   0.100329E-04
   0.100329E-04
   0.100329E-04
   0.600632E-03
   0.600632E-03
   0.600632E-03
   0.600632E-03
   0.394534E-04
   0.394534E-04
   0.394534E-04
   0.115053E-02
   0.115053E-02
   0.115053E-02
   0.115053E-02
   0.139449E-03
   0.139449E-03
   0.139449E-03
   0.139449E-03
   0.391700E-03
   0.391700E-03
   0.391700E-03
   0.391700E-03
   0.385499E-03
   0.385499E-03
   0.385499E-03
   0.385499E-03
   0.547814E-03
   0.547814E-03
   0.547814E-03
   0.238048E-05
   0.238048E-05
   0.238048E-05
   0.624966E-04
   0.624966E-04
   0.624966E-04
   0.190539E-02
   0.190539E-02
   0.190539E-02
   0.841702E-03
   0.841702E-03
   0.841702E-03
   0.841702E-03
   0.769949E-03
   0.769949E-03
   0.769949E-03
   0.769949E-03
   0.984533E-04
   0.984533E-04
   0.984533E-04
   0.984533E-04
   0.108309E-02
   0.108309E-02
   0.108309E-02
   0.108309E-02
   0.196533E-02
   0.196533E-02
   0.196533E-02
   0.125726E-02
   0.125726E-02
   0.125726E-02
   0.385476E-05
   0.385476E-05
   0.385476E-05
   0.612066E-03
   0.612066E-03
   0.612066E-03
   0.612066E-03
   0.797178E-03
   0.797178E-03
   0.797178E-03
   0.797178E-03
   0.237157E-06
   0.237157E-06
   0.237157E-06
   0.169212E-02
   0.169212E-02
   0.169212E-02
   0.193255E-02
   0.193255E-02
   0.193255E-02
   0.146415E-02
   0.146415E-02
   0.146415E-02
   0.146415E-02
   0.127221E-02
   0.127221E-02
   0.127221E-02
   0.127221E-02
   0.566261E-03
   0.566261E-03
   0.566261E-03
   0.387842E-03
   0.387842E-03
   0.387842E-03
   0.387842E-03
   0.176997E-05
   0.176997E-05
   0.176997E-05
   0.154876E-02
   0.154876E-02
   0.154876E-02
   0.165606E-02
   0.165606E-02
   0.165606E-02
   0.116886E-02
   0.116886E-02
   0.116886E-02
   0.116886E-02
   0.655846E-03
   0.655846E-03
   0.655846E-03
   0.862149E-03
   0.862149E-03
   0.862149E-03
   0.862149E-03
   0.139281E-03
   0.139281E-03
   0.139281E-03
   0.179758E-03
   0.179758E-03
   0.179758E-03
   0.179758E-03
   0.238697E-05
   0.238697E-05
   0.238697E-05
   0.956462E-04
   0.956462E-04
   0.956462E-04
   0.956462E-04
   0.119396E-02
   0.119396E-02
   0.119396E-02
   0.119396E-02
   0.193925E-02
   0.193925E-02
   0.193925E-02
   0.124773E-02
   0.124773E-02
   0.124773E-02
   0.124773E-02
   0.141628E-02
   0.141628E-02
   0.141628E-02
   0.141628E-02
   0.566770E-03
   0.566770E-03
   0.566770E-03
   0.795398E-03
   0.795398E-03
   0.795398E-03
   0.795398E-03
   0.670268E-03
   0.670268E-03
   0.670268E-03
   0.213968E-02
   0.213968E-02
   0.213968E-02
   0.121176E-02
   0.121176E-02
   0.121176E-02
   0.109248E-02
   0.109248E-02
   0.109248E-02
   0.109248E-02
   0.152277E-05
   0.152277E-05
   0.152277E-05
   0.912259E-06
   0.912259E-06
   0.912259E-06
   0.274618E-07
   0.274618E-07
   0.274618E-07
   0.148624E-02
   0.148624E-02
   0.148624E-02
   0.167794E-05
   0.167794E-05
   0.167794E-05
   0.844451E-03
   0.844451E-03
   0.844451E-03
   0.844451E-03
   0.197622E-02
   0.197622E-02
   0.197622E-02
   0.839324E-03
   0.839324E-03
   0.839324E-03
   0.839324E-03
   0.147609E-02
   0.147609E-02
   0.147609E-02
   0.160419E-02
   0.160419E-02
   0.160419E-02
   0.114105E-02
   0.114105E-02
   0.114105E-02
   0.114105E-02
   0.388260E-03
   0.388260E-03
   0.388260E-03
   0.388260E-03
   0.566379E-03
   0.566379E-03
   0.566379E-03
   0.207284E-05
   0.207284E-05
   0.207284E-05
   0.116431E-02
   0.116431E-02
   0.116431E-02
   0.116431E-02
   0.193059E-02
   0.193059E-02
   0.193059E-02
   0.165898E-02
   0.165898E-02
   0.165898E-02
   0.654028E-03
   0.654028E-03
   0.654028E-03
   0.774050E-03
   0.774050E-03
   0.774050E-03
   0.774050E-03
   0.550689E-03
   0.550689E-03
   0.550689E-03
   0.676984E-03
   0.676984E-03
   0.676984E-03
   0.425106E-03
   0.425106E-03
   0.425106E-03
   0.462887E-03
   0.462887E-03
   0.462887E-03
   0.519576E-03
   0.519576E-03
   0.519576E-03
   0.519576E-03
   0.482919E-03
   0.482919E-03
   0.482919E-03
   0.609707E-03
   0.609707E-03
   0.609707E-03
   0.609707E-03
   0.119497E-02
   0.119497E-02
   0.119497E-02
   0.119497E-02
   0.306467E-03
   0.306467E-03
   0.306467E-03
   0.118133E-03
   0.118133E-03
   0.118133E-03
   0.206127E-02
   0.206127E-02
   0.206127E-02
   0.881017E-03
   0.881017E-03
   0.881017E-03
   0.881017E-03
   0.877007E-03
   0.877007E-03
   0.877007E-03
   0.877007E-03
   0.309144E-03
   0.309144E-03
   0.309144E-03
   0.857545E-03
   0.857545E-03
   0.857545E-03
   0.857545E-03
   0.117677E-03
   0.117677E-03
   0.117677E-03
   0.431003E-03
   0.431003E-03
   0.431003E-03
   0.588814E-03
   0.588814E-03
   0.588814E-03
   0.588814E-03
   0.798604E-03
   0.798604E-03
   0.798604E-03
   0.551546E-03
   0.551546E-03
   0.551546E-03
   0.205158E-05
   0.205158E-05
   0.205158E-05
   0.196902E-05
   0.196902E-05
   0.196902E-05
   0.455153E-03
   0.455153E-03
   0.455153E-03
   0.147813E-05
   0.147813E-05
   0.147813E-05
   0.147589E-02
   0.147589E-02
   0.147589E-02
   0.108268E-02
   0.108268E-02
   0.108268E-02
   0.108268E-02
   0.206070E-02
   0.206070E-02
   0.206070E-02
   0.126401E-02
   0.126401E-02
   0.126401E-02
   0.796724E-03
   0.796724E-03
   0.796724E-03
   0.796724E-03
   0.612122E-03
   0.612122E-03
   0.612122E-03
   0.612122E-03
   0.163314E-05
   0.163314E-05
   0.163314E-05
   0.471671E-03
   0.471671E-03
   0.471671E-03
   0.501718E-03
   0.501718E-03
   0.501718E-03
   0.520709E-03
   0.520709E-03
   0.520709E-03
   0.520709E-03
   0.147009E-02
   0.147009E-02
   0.147009E-02
   0.147009E-02
   0.167559E-02
   0.167559E-02
   0.167559E-02
   0.127196E-02
   0.127196E-02
   0.127196E-02
   0.127196E-02
   0.766611E-03
   0.766611E-03
   0.766611E-03
   0.766611E-03
   0.656891E-03
   0.656891E-03
   0.656891E-03
   0.673948E-03
   0.673948E-03
   0.673948E-03
   0.512683E-03
   0.512683E-03
   0.512683E-03
   0.512683E-03
   0.430928E-03
   0.430928E-03
   0.430928E-03
   0.483037E-03
   0.483037E-03
   0.483037E-03
   0.100319E-03
   0.100319E-03
   0.100319E-03
   0.100319E-03
   0.196409E-02
   0.196409E-02
   0.196409E-02
   0.108398E-02
   0.108398E-02
   0.108398E-02
   0.108398E-02
   0.125879E-02
   0.125879E-02
   0.125879E-02
   0.113969E-02
   0.113969E-02
   0.113969E-02
   0.113969E-02
   0.193664E-02
   0.193664E-02
   0.193664E-02
   0.159887E-02
   0.159887E-02
   0.159887E-02
   0.100359E-05
   0.100359E-05
   0.100359E-05
   0.469515E-03
   0.469515E-03
   0.469515E-03
   0.593185E-03
   0.593185E-03
   0.593185E-03
   0.593185E-03
   0.587778E-03
   0.587778E-03
   0.587778E-03
   0.587778E-03
   0.501134E-06
   0.501134E-06
   0.501134E-06
   0.297048E-05
   0.297048E-05
   0.297048E-05
   0.531903E-03
   0.531903E-03
   0.531903E-03
   0.531903E-03
   0.533475E-03
   0.533475E-03
   0.533475E-03
   0.533475E-03
   0.137765E-03
   0.137765E-03
   0.137765E-03
   0.115398E-02
   0.115398E-02
   0.115398E-02
   0.115398E-02
   0.181755E-03
   0.181755E-03
   0.181755E-03
   0.181755E-03
   0.460743E-03
   0.460743E-03
   0.460743E-03
   0.460743E-03
   0.463744E-03
   0.463744E-03
   0.463744E-03
   0.463744E-03
   0.415072E-03
   0.415072E-03
   0.415072E-03
   0.119493E-02
   0.119493E-02
   0.119493E-02
   0.119493E-02
   0.950262E-04
   0.950262E-04
   0.950262E-04
   0.950262E-04
   0.353646E-05
   0.353646E-05
   0.353646E-05
   0.124344E-02
   0.124344E-02
   0.124344E-02
   0.124344E-02
   0.193884E-02
   0.193884E-02
   0.193884E-02
   0.141128E-02
   0.141128E-02
   0.141128E-02
   0.141128E-02
   0.881477E-03
   0.881477E-03
   0.881477E-03
   0.881477E-03
   0.213943E-02
   0.213943E-02
   0.213943E-02
   0.877056E-03
   0.877056E-03
   0.877056E-03
   0.877056E-03
   0.553434E-03
   0.553434E-03
   0.553434E-03
   0.553434E-03
   0.452702E-03
   0.452702E-03
   0.452702E-03
   0.496301E-03
   0.496301E-03
   0.496301E-03
   0.496301E-03
   0.859829E-03
   0.859829E-03
   0.859829E-03
   0.859829E-03
   0.306448E-03
   0.306448E-03
   0.306448E-03
   0.119899E-03
   0.119899E-03
   0.119899E-03
   0.590183E-03
   0.590183E-03
   0.590183E-03
   0.590183E-03
   0.427090E-03
   0.427090E-03
   0.427090E-03
   0.796029E-03
   0.796029E-03
   0.796029E-03
   0.141000E-02
   0.141000E-02
   0.141000E-02
   0.141000E-02
   0.167598E-02
   0.167598E-02
   0.167598E-02
   0.124346E-02
   0.124346E-02
   0.124346E-02
   0.124346E-02
   0.850247E-07
   0.850247E-07
   0.850247E-07
   0.553652E-03
   0.553652E-03
   0.553652E-03
   0.553652E-03
   0.521427E-03
   0.521427E-03
   0.521427E-03
   0.521427E-03
   0.115186E-02
   0.115186E-02
   0.115186E-02
   0.115186E-02
   0.133247E-03
   0.133247E-03
   0.133247E-03
   0.180390E-03
   0.180390E-03
   0.180390E-03
   0.180390E-03
   0.466305E-03
   0.466305E-03
   0.466305E-03
   0.466305E-03
   0.467100E-03
   0.467100E-03
   0.467100E-03
   0.467100E-03
   0.412940E-03
   0.412940E-03
   0.412940E-03
   0.140839E-03
   0.140839E-03
   0.140839E-03
   0.140839E-03
   0.139548E-03
   0.139548E-03
   0.139548E-03
   0.139548E-03
   0.226188E-05
   0.226188E-05
   0.226188E-05
   0.392762E-05
   0.392762E-05
   0.392762E-05
   0.849808E-03
   0.849808E-03
   0.849808E-03
   0.849808E-03
   0.855080E-03
   0.855080E-03
   0.855080E-03
   0.855080E-03
   0.197493E-02
   0.197493E-02
   0.197493E-02
   0.843199E-03
   0.843199E-03
   0.843199E-03
   0.843199E-03
   0.839108E-03
   0.839108E-03
   0.839108E-03
   0.839108E-03
   0.147978E-05
   0.147978E-05
   0.147978E-05
   0.160236E-02
   0.160236E-02
   0.160236E-02
   0.147431E-02
   0.147431E-02
   0.147431E-02
   0.113959E-02
   0.113959E-02
   0.113959E-02
   0.113959E-02
   0.426338E-03
   0.426338E-03
   0.426338E-03
   0.501762E-03
   0.501762E-03
   0.501762E-03
   0.120126E-02
   0.120126E-02
   0.120126E-02
   0.189721E-02
   0.189721E-02
   0.189721E-02
   0.109136E-02
   0.109136E-02
   0.109136E-02
   0.109136E-02
   0.868423E-03
   0.868423E-03
   0.868423E-03
   0.868423E-03
   0.899680E-03
   0.899680E-03
   0.899680E-03
   0.911098E-03
   0.911098E-03
   0.911098E-03
   0.127393E-02
   0.127393E-02
   0.127393E-02
   0.127393E-02
   0.192797E-02
   0.192797E-02
   0.192797E-02
   0.147164E-02
   0.147164E-02
   0.147164E-02
   0.147164E-02
   0.205997E-02
   0.205997E-02
   0.205997E-02
   0.108019E-02
   0.108019E-02
   0.108019E-02
   0.108019E-02
   0.126225E-02
   0.126225E-02
   0.126225E-02
   0.150724E-05
   0.150724E-05
   0.150724E-05
   0.871049E-03
   0.871049E-03
   0.871049E-03
   0.871049E-03
   0.495410E-03
   0.495410E-03
   0.495410E-03
   0.495410E-03
   0.504766E-03
   0.504766E-03
   0.504766E-03
   0.470558E-03
   0.470558E-03
   0.470558E-03
   0.522705E-03
   0.522705E-03
   0.522705E-03
   0.522705E-03
   0.147496E-02
   0.147496E-02
   0.147496E-02
   0.213079E-05
   0.213079E-05
   0.213079E-05
   0.783070E-03
   0.783070E-03
   0.783070E-03
   0.783070E-03
   0.190718E-02
   0.190718E-02
   0.190718E-02
   0.779703E-03
   0.779703E-03
   0.779703E-03
   0.779703E-03
   0.280073E-05
   0.280073E-05
   0.280073E-05
   0.599377E-06
   0.599377E-06
   0.599377E-06
   0.893363E-03
   0.893363E-03
   0.893363E-03
   0.680009E-03
   0.680009E-03
   0.680009E-03
   0.680009E-03
   0.680600E-03
   0.680600E-03
   0.680600E-03
   0.680600E-03
   0.214028E-02
   0.214028E-02
   0.214028E-02
   0.879475E-03
   0.879475E-03
   0.879475E-03
   0.879475E-03
   0.873160E-03
   0.873160E-03
   0.873160E-03
   0.873160E-03
   0.451391E-03
   0.451391E-03
   0.451391E-03
   0.554844E-03
   0.554844E-03
   0.554844E-03
   0.554844E-03
   0.495059E-03
   0.495059E-03
   0.495059E-03
   0.495059E-03
   0.431460E-03
   0.431460E-03
   0.431460E-03
   0.798142E-03
   0.798142E-03
   0.798142E-03
   0.592015E-03
   0.592015E-03
   0.592015E-03
   0.592015E-03
   0.462343E-03
   0.462343E-03
   0.462343E-03
   0.462343E-03
   0.450518E-03
   0.450518E-03
   0.450518E-03
   0.120145E-02
   0.120145E-02
   0.120145E-02
   0.108719E-02
   0.108719E-02
   0.108719E-02
   0.108719E-02
   0.907084E-03
   0.907084E-03
   0.907084E-03
   0.868654E-03
   0.868654E-03
   0.868654E-03
   0.868654E-03
   0.150488E-02
   0.150488E-02
   0.150488E-02
   0.166112E-02
   0.166112E-02
   0.166112E-02
   0.116867E-02
   0.116867E-02
   0.116867E-02
   0.116867E-02
   0.664121E-06
   0.664121E-06
   0.664121E-06
   0.680113E-03
   0.680113E-03
   0.680113E-03
   0.680113E-03
   0.908252E-03
   0.908252E-03
   0.908252E-03
   0.193264E-02
   0.193264E-02
   0.193264E-02
   0.159466E-02
   0.159466E-02
   0.159466E-02
   0.113901E-02
   0.113901E-02
   0.113901E-02
   0.113901E-02
   0.468517E-03
   0.468517E-03
   0.468517E-03
   0.100210E-05
   0.100210E-05
   0.100210E-05
   0.150800E-02
   0.150800E-02
   0.150800E-02
   0.591638E-05
   0.591638E-05
   0.591638E-05
   0.697947E-05
   0.697947E-05
   0.697947E-05
   0.704421E-05
   0.704421E-05
   0.704421E-05
   0.456717E-03
   0.456717E-03
   0.456717E-03
   0.486437E-03
   0.486437E-03
   0.486437E-03
   0.515133E-03
   0.515133E-03
   0.515133E-03
   0.515133E-03
   0.847166E-03
   0.847166E-03
   0.847166E-03
   0.847166E-03
   0.417238E-03
   0.417238E-03
   0.417238E-03
   0.898344E-03
   0.898344E-03
   0.898344E-03
   0.167690E-02
   0.167690E-02
   0.167690E-02
   0.124503E-02
   0.124503E-02
   0.124503E-02
   0.124503E-02
   0.140497E-02
   0.140497E-02
   0.140497E-02
   0.140497E-02
   0.523877E-03
   0.523877E-03
   0.523877E-03
   0.523877E-03
   0.555272E-03
   0.555272E-03
   0.555272E-03
   0.555272E-03
   0.570599E-06
   0.570599E-06
   0.570599E-06
   0.533842E-03
   0.533842E-03
   0.533842E-03
   0.533842E-03
   0.465440E-03
   0.465440E-03
   0.465440E-03
   0.465440E-03
   0.116979E-02
   0.116979E-02
   0.116979E-02
   0.116979E-02
   0.192872E-02
   0.192872E-02
   0.192872E-02
   0.166192E-02
   0.166192E-02
   0.166192E-02
   0.253583E-05
   0.253583E-05
   0.253583E-05
   0.908871E-03
   0.908871E-03
   0.908871E-03
   0.689074E-03
   0.689074E-03
   0.689074E-03
   0.689074E-03
   0.147280E-02
   0.147280E-02
   0.147280E-02
   0.147280E-02
   0.127422E-02
   0.127422E-02
   0.127422E-02
   0.127422E-02
   0.492024E-03
   0.492024E-03
   0.492024E-03
   0.492024E-03
   0.868618E-03
   0.868618E-03
   0.868618E-03
   0.868618E-03
   0.426298E-03
   0.426298E-03
   0.426298E-03
   0.506900E-03
   0.506900E-03
   0.506900E-03
   0.313347E-05
   0.313347E-05
   0.313347E-05
   0.446897E-03
   0.446897E-03
   0.446897E-03
   0.550924E-05
   0.550924E-05
   0.550924E-05
   0.903160E-03
   0.903160E-03
   0.903160E-03
   0.119720E-05
   0.119720E-05
   0.119720E-05
   0.502484E-03
   0.502484E-03
   0.502484E-03
   0.502484E-03
   0.541504E-03
   0.541504E-03
   0.541504E-03
   0.541504E-03
   0.847871E-03
   0.847871E-03
   0.847871E-03
   0.847871E-03
   0.461484E-03
   0.461484E-03
   0.461484E-03
   0.461484E-03
   0.436076E-03
   0.436076E-03
   0.436076E-03
   0.594856E-03
   0.594856E-03
   0.594856E-03
   0.594856E-03
   0.796348E-03
   0.796348E-03
   0.796348E-03
   0.462931E-03
   0.462931E-03
   0.462931E-03
   0.462931E-03
   0.455149E-03
   0.455149E-03
   0.455149E-03
   0.484162E-03
   0.484162E-03
   0.484162E-03
   0.417114E-03
   0.417114E-03
   0.417114E-03

SCALARS  vx_core_radius  double
LOOKUP_TABLE default
   0.000000E+00
   0.000000E+00
   0.000000E+00
   0.000000E+00
   0.000000E+00
   0.000000E+00
   0.000000E+00
   0.000000E+00
   0.000000E+00
   0.000000E+00
   0.000000E+00
   0.000000E+00
   0.000000E+00
   0.000000E+00
   0.000000E+00
   0.000000E+00
   0.000000E+00
   0.000000E+00
   0.000000E+00
   0.000000E+00
   0.000000E+00
   0.000000E+00
   0.000000E+00
   0.000000E+00
   0.000000E+00
   0.000000E+00
   0.000000E+00
   0.000000E+00
   0.000000E+00
   0.000000E+00
   0.000000E+00