# vtk DataFile Version 2.0
This file was created by Fortran
ASCII
DATASET UNSTRUCTURED_GRID
POINTS  1138  DOUBLE
  -0.329000E+00   0.184400E+00  -0.328200E+00
  -0.426100E+00   0.182100E+00  -0.187800E+00
  -0.187800E+00   0.182100E+00  -0.426100E+00
  -0.326800E+00   0.328600E+00  -0.187600E+00
  -0.187600E+00   0.328600E+00  -0.326800E+00
  -0.404500E+00   0.000000E+00  -0.293900E+00
  -0.293900E+00   0.000000E+00  -0.404500E+00
  -0.475500E+00   0.000000E+00  -0.154500E+00
  -0.154500E+00   0.000000E+00  -0.475500E+00
  -0.182200E+00   0.428500E+00  -0.182200E+00
  -0.404500E+00   0.293900E+00   0.000000E+00
   0.000000E+00   0.293900E+00  -0.404500E+00
  -0.475500E+00   0.154500E+00   0.000000E+00
   0.000000E+00   0.154500E+00  -0.475500E+00
  -0.328600E+00  -0.184500E+00  -0.328600E+00
  -0.293900E+00   0.404500E+00   0.000000E+00
   0.000000E+00   0.404500E+00  -0.293900E+00
  -0.426100E+00  -0.182100E+00  -0.187700E+00
  -0.187700E+00  -0.182100E+00  -0.426100E+00
  -0.500000E+00   0.000000E+00   0.000000E+00
   0.000000E+00   0.000000E+00  -0.500000E+00
  -0.154500E+00   0.475500E+00   0.000000E+00
   0.000000E+00   0.475500E+00  -0.154500E+00
  -0.475500E+00  -0.154500E+00   0.000000E+00
   0.000000E+00  -0.154500E+00  -0.475500E+00
  -0.426100E+00   0.182100E+00   0.187800E+00
   0.187800E+00   0.182100E+00  -0.426100E+00
  -0.326800E+00  -0.328600E+00  -0.187600E+00
  -0.187600E+00  -0.328600E+00  -0.326800E+00
  -0.326800E+00   0.328600E+00   0.187600E+00
   0.187600E+00   0.328600E+00  -0.326800E+00
  -0.475500E+00   0.000000E+00   0.154500E+00
   0.154500E+00   0.000000E+00  -0.475500E+00
   0.000000E+00   0.500000E+00   0.000000E+00
  -0.182200E+00   0.428500E+00   0.182200E+00
  -0.404500E+00  -0.293900E+00   0.000000E+00
   0.182200E+00   0.428500E+00  -0.182200E+00
   0.000000E+00  -0.293900E+00  -0.404500E+00
  -0.426100E+00  -0.182100E+00   0.187700E+00
   0.187700E+00  -0.182100E+00  -0.426100E+00
  -0.182200E+00  -0.428500E+00  -0.182200E+00
   0.000000E+00   0.475500E+00   0.154500E+00
   0.154500E+00   0.475500E+00   0.000000E+00
  -0.404500E+00   0.000000E+00   0.293900E+00
   0.293900E+00   0.000000E+00  -0.404500E+00
  -0.328200E+00   0.184400E+00   0.329000E+00
   0.329000E+00   0.184400E+00  -0.328200E+00
  -0.293900E+00  -0.404500E+00   0.000000E+00
   0.000000E+00  -0.404500E+00  -0.293900E+00
  -0.187600E+00   0.328600E+00   0.326800E+00
   0.326800E+00   0.328600E+00  -0.187600E+00
  -0.326800E+00  -0.328600E+00   0.187600E+00
   0.187600E+00  -0.328600E+00  -0.326800E+00
   0.000000E+00   0.404500E+00   0.293900E+00
   0.293900E+00   0.404500E+00   0.000000E+00
  -0.328600E+00  -0.184500E+00   0.328600E+00
   0.328600E+00  -0.184500E+00  -0.328600E+00
  -0.293900E+00   0.000000E+00   0.404500E+00
   0.404500E+00   0.000000E+00  -0.293900E+00
  -0.154500E+00  -0.475500E+00   0.000000E+00
   0.000000E+00  -0.475500E+00  -0.154500E+00
   0.182200E+00   0.428500E+00   0.182200E+00
  -0.187800E+00   0.182100E+00   0.426100E+00
   0.426100E+00   0.182100E+00  -0.187800E+00
   0.000000E+00   0.293900E+00   0.404500E+00
  -0.182200E+00  -0.428500E+00   0.182200E+00
   0.404500E+00   0.293900E+00   0.000000E+00
   0.182200E+00  -0.428500E+00  -0.182200E+00
   0.000000E+00  -0.500000E+00   0.000000E+00
  -0.154500E+00   0.000000E+00   0.475500E+00
   0.475500E+00   0.000000E+00  -0.154500E+00
  -0.187600E+00  -0.328600E+00   0.326800E+00
   0.326800E+00  -0.328600E+00  -0.187600E+00
   0.187600E+00   0.328600E+00   0.326800E+00
   0.326800E+00   0.328600E+00   0.187600E+00
  -0.187700E+00  -0.182100E+00   0.426100E+00
   0.426100E+00  -0.182100E+00  -0.187700E+00
   0.000000E+00   0.154500E+00   0.475500E+00
   0.475500E+00   0.154500E+00   0.000000E+00
   0.000000E+00  -0.475500E+00   0.154500E+00
   0.154500E+00  -0.475500E+00   0.000000E+00
   0.000000E+00   0.000000E+00   0.500000E+00
   0.500000E+00   0.000000E+00   0.000000E+00
   0.187800E+00   0.182100E+00   0.426100E+00
   0.426100E+00   0.182100E+00   0.187800E+00
   0.000000E+00  -0.404500E+00   0.293900E+00
   0.293900E+00  -0.404500E+00   0.000000E+00
   0.329000E+00   0.184400E+00   0.328200E+00
   0.000000E+00  -0.154500E+00   0.475500E+00
   0.475500E+00  -0.154500E+00   0.000000E+00
   0.000000E+00  -0.293900E+00   0.404500E+00
   0.404500E+00  -0.293900E+00   0.000000E+00
   0.182200E+00  -0.428500E+00   0.182200E+00
   0.154500E+00   0.000000E+00   0.475500E+00
   0.475500E+00   0.000000E+00   0.154500E+00
   0.293900E+00   0.000000E+00   0.404500E+00
   0.404500E+00   0.000000E+00   0.293900E+00
   0.187600E+00  -0.328600E+00   0.326800E+00
   0.326800E+00  -0.328600E+00   0.187600E+00
   0.187700E+00  -0.182100E+00   0.426100E+00
   0.426100E+00  -0.182100E+00   0.187700E+00
   0.328600E+00  -0.184500E+00   0.328600E+00
  -0.409917E+00   0.182483E+00  -0.211200E+00
  -0.377550E+00   0.183250E+00  -0.258000E+00
  -0.345183E+00   0.184017E+00  -0.304800E+00
  -0.395063E+00   0.230500E-01  -0.298187E+00
  -0.376188E+00   0.691500E-01  -0.306762E+00
  -0.357313E+00   0.115250E+00  -0.315337E+00
  -0.338438E+00   0.161350E+00  -0.323912E+00
  -0.298287E+00   0.230500E-01  -0.394962E+00
  -0.307063E+00   0.691500E-01  -0.375887E+00
  -0.315837E+00   0.115250E+00  -0.356812E+00
  -0.324612E+00   0.161350E+00  -0.337737E+00
  -0.211333E+00   0.182483E+00  -0.409783E+00
  -0.258400E+00   0.183250E+00  -0.377150E+00
  -0.305467E+00   0.184017E+00  -0.344517E+00
  -0.327075E+00   0.310575E+00  -0.205175E+00
  -0.327625E+00   0.274525E+00  -0.240325E+00
  -0.328175E+00   0.238475E+00  -0.275475E+00
  -0.328725E+00   0.202425E+00  -0.310625E+00
  -0.205275E+00   0.310575E+00  -0.326975E+00
  -0.240625E+00   0.274525E+00  -0.327325E+00
  -0.275975E+00   0.238475E+00  -0.327675E+00
  -0.311325E+00   0.202425E+00  -0.328025E+00
  -0.467267E+00   0.159100E+00  -0.313000E-01
  -0.450800E+00   0.168300E+00  -0.939000E-01
  -0.434333E+00   0.177500E+00  -0.156500E+00
  -0.467267E+00   0.303500E-01  -0.160050E+00
  -0.450800E+00   0.910500E-01  -0.171150E+00
  -0.434333E+00   0.151750E+00  -0.182250E+00
  -0.407200E+00   0.227625E-01  -0.280637E+00
  -0.412600E+00   0.682875E-01  -0.254112E+00
  -0.418000E+00   0.113813E+00  -0.227587E+00
  -0.423400E+00   0.159337E+00  -0.201062E+00
  -0.343350E+00   0.304183E+00  -0.187633E+00
  -0.376450E+00   0.255350E+00  -0.187700E+00
  -0.409550E+00   0.206517E+00  -0.187767E+00
  -0.407200E+00   0.279925E+00  -0.234750E-01
  -0.412600E+00   0.251975E+00  -0.704250E-01
  -0.418000E+00   0.224025E+00  -0.117375E+00
  -0.423400E+00   0.196075E+00  -0.164325E+00
  -0.280637E+00   0.227625E-01  -0.407200E+00
  -0.254112E+00   0.682875E-01  -0.412600E+00
  -0.227587E+00   0.113813E+00  -0.418000E+00
  -0.201062E+00   0.159337E+00  -0.423400E+00
  -0.160050E+00   0.303500E-01  -0.467267E+00
  -0.171150E+00   0.910500E-01  -0.450800E+00
  -0.182250E+00   0.151750E+00  -0.434333E+00
  -0.187633E+00   0.304183E+00  -0.343350E+00
  -0.187700E+00   0.255350E+00  -0.376450E+00
  -0.187767E+00   0.206517E+00  -0.409550E+00
  -0.234750E-01   0.279925E+00  -0.407200E+00
  -0.704250E-01   0.251975E+00  -0.412600E+00
  -0.117375E+00   0.224025E+00  -0.418000E+00
  -0.164325E+00   0.196075E+00  -0.423400E+00
  -0.313000E-01   0.159100E+00  -0.467267E+00
  -0.939000E-01   0.168300E+00  -0.450800E+00
  -0.156500E+00   0.177500E+00  -0.434333E+00
  -0.394788E+00   0.298237E+00  -0.234500E-01
  -0.375362E+00   0.306912E+00  -0.703500E-01
  -0.355938E+00   0.315588E+00  -0.117250E+00
  -0.336512E+00   0.324263E+00  -0.164150E+00
  -0.210800E+00   0.328600E+00  -0.303600E+00
  -0.257200E+00   0.328600E+00  -0.257200E+00
  -0.303600E+00   0.328600E+00  -0.210800E+00
  -0.206300E+00   0.411850E+00  -0.183100E+00
  -0.254500E+00   0.378550E+00  -0.184900E+00
  -0.302700E+00   0.345250E+00  -0.186700E+00
  -0.298013E+00   0.395013E+00  -0.234500E-01
  -0.306237E+00   0.376038E+00  -0.703500E-01
  -0.314462E+00   0.357063E+00  -0.117250E+00
  -0.322688E+00   0.338088E+00  -0.164150E+00
  -0.183100E+00   0.411850E+00  -0.206300E+00
  -0.184900E+00   0.378550E+00  -0.254500E+00
  -0.186700E+00   0.345250E+00  -0.302700E+00
  -0.234500E-01   0.298237E+00  -0.394788E+00
  -0.703500E-01   0.306912E+00  -0.375362E+00
  -0.117250E+00   0.315588E+00  -0.355938E+00
  -0.164150E+00   0.324263E+00  -0.336512E+00
  -0.234500E-01   0.395013E+00  -0.298013E+00
  -0.703500E-01   0.376038E+00  -0.306237E+00
  -0.117250E+00   0.357063E+00  -0.314462E+00
  -0.164150E+00   0.338088E+00  -0.322688E+00
  -0.312333E+00   0.000000E+00  -0.386067E+00
  -0.349200E+00   0.000000E+00  -0.349200E+00
  -0.386067E+00   0.000000E+00  -0.312333E+00
  -0.423400E+00  -0.159338E+00  -0.200975E+00
  -0.418000E+00  -0.113813E+00  -0.227525E+00
  -0.412600E+00  -0.682875E-01  -0.254075E+00
  -0.407200E+00  -0.227625E-01  -0.280625E+00
  -0.463667E+00   0.000000E+00  -0.177733E+00
  -0.440000E+00   0.000000E+00  -0.224200E+00
  -0.416333E+00   0.000000E+00  -0.270667E+00
  -0.338087E+00  -0.161438E+00  -0.324263E+00
  -0.357063E+00  -0.115313E+00  -0.315588E+00
  -0.376038E+00  -0.691875E-01  -0.306913E+00
  -0.395012E+00  -0.230625E-01  -0.298237E+00
  -0.177733E+00   0.000000E+00  -0.463667E+00
  -0.224200E+00   0.000000E+00  -0.440000E+00
  -0.270667E+00   0.000000E+00  -0.416333E+00
  -0.324263E+00  -0.161438E+00  -0.338087E+00
  -0.315588E+00  -0.115313E+00  -0.357063E+00
  -0.306913E+00  -0.691875E-01  -0.376038E+00
  -0.298237E+00  -0.230625E-01  -0.395012E+00
  -0.200975E+00  -0.159338E+00  -0.423400E+00
  -0.227525E+00  -0.113813E+00  -0.418000E+00
  -0.254075E+00  -0.682875E-01  -0.412600E+00
  -0.280625E+00  -0.227625E-01  -0.407200E+00
  -0.475500E+00  -0.135187E+00  -0.193125E-01
  -0.475500E+00  -0.965625E-01  -0.579375E-01
[...]
POINT_DATA  1138
SCALARS  vx_strength  double
LOOKUP_TABLE default
   0.000000E+00
   0.000000E+00
   0.000000E+00
   0.000000E+00
   0.000000E+00
   0.000000E+00
   0.000000E+00
   0.000000E+00
   0.000000E+00
   0.000000E+00
   0.000000E+00
   0.000000E+00
   0.000000E+00
   0.000000E+00
   0.000000E+00
   0.000000E+00
   0.000000E+00
   0.000000E+00
   0.000000E+00
   0.000000E+00
   0.000000E+00
   0.000000E+00
   0.000000E+00
   0.000000E+00
   0.000000E+00
   0.000000E+00
   0.000000E+00
   0.000000E+00
   0.000000E+00
   0.000000E+00
   0.000000E+00
   0.000000E+00
   0.000000E+00
   0.000000E+00
   0.000000E+00
   0.000000E+00
   0.000000E+00
   0.000000E+00
   0.000000E+00
   0.000000E+00
   0.000000E+00
   0.000000E+00
   0.000000E+00
   0.000000E+00
   0.000000E+00
   0.000000E+00
   0.000000E+00
   0.000000E+00
   0.000000E+00
   0.000000E+00
   0.000000E+00
   0.000000E+00
   0.000000E+00
   0.000000E+00
   0.000000E+00
   0.000000E+00
   0.000000E+00
   0.000000E+00
   0.000000E+00
   0.000000E+00
   0.000000E+00
   0.000000E+00
   0.000000E+00
   0.000000E+00
   0.000000E+00
   0.000000E+00
   0.000000E+00
   0.000000E+00
   0.000000E+00
   0.000000E+00
   0.000000E+00
   0.000000E+00
   0.000000E+00
   0.000000E+00
   0.000000E+00
   0.000000E+00
   0.000000E+00
   0.000000E+00
   0.000000E+00
   0.000000E+00
   0.000000E+00
   0.000000E+00
   0.000000E+00
   0.000000E+00
   0.000000E+00
   0.000000E+00
   0.000000E+00
   0.000000E+00
   0.000000E+00
   0.000000E+00
   0.000000E+00
   0.000000E+00
   0.000000E+00
   0.000000E+00
   0.000000E+00
   0.000000E+00
   0.000000E+00
   0.000000E+00
   0.000000E+00
   0.000000E+00
   0.000000E+00
   0.000000E+00
   0.667080E-03
   0.667080E-03
   0.667080E-03
   0.698730E-03
   0.698730E-03
   0.698730E-03
   0.698730E-03
   0.123696E-02
   0.123696E-02
   0.123696E-02
   0.123696E-02
   0.137316E-04
   0.137316E-04
   0.137316E-04
   0.972890E-03
   0.972890E-03
   0.972890E-03
   0.972890E-03
   0.375559E-03
   0.375559E-03
   0.375559E-03
   0.375559E-03
   0.611529E-03
   0.611529E-03
   0.611529E-03
   0.591567E-03
   0.591567E-03
   0.591567E-03
   0.802745E-03
   0.802745E-03
   0.802745E-03
   0.802745E-03
   0.672134E-03
   0.672134E-03
   0.672134E-03
   0.845246E-03
   0.845246E-03
   0.845246E-03
   0.845246E-03
   0.189061E-03
   0.189061E-03
   0.189061E-03
   0.189061E-03
   0.190475E-02
   0.190475E-02
   0.190475E-02
   0.193715E-02
   0.193715E-02
   0.193715E-02
   0.593648E-03
   0.593648E-03
   0.593648E-03
   0.593648E-03
   0.727671E-03
   0.727671E-03
   0.727671E-03
   0.699737E-03
   0.699737E-03
   0.699737E-03
   0.699737E-03
   0.549425E-03
   0.549425E-03
   0.549425E-03
   0.769667E-04
   0.769667E-04
   0.769667E-04
   0.123977E-02
   0.123977E-02
   0.123977E-02
   0.123977E-02
   0.187608E-02
   0.187608E-02
   0.187608E-02
   0.378088E-03
   0.378088E-03
   0.378088E-03
   0.378088E-03
   0.381789E-03
   0.381789E-03
   0.381789E-03
   0.381789E-03
   0.215095E-05
   0.215095E-05
   0.215095E-05
   0.815948E-03
   0.815948E-03
   0.815948E-03
   0.815948E-03
   0.601960E-05
   0.601960E-05
   0.601960E-05
   0.683607E-03
   0.683607E-03
   0.683607E-03
   0.683607E-03
   0.596560E-04
   0.596560E-04
   0.596560E-04
   0.119683E-02
   0.119683E-02
   0.119683E-02
   0.119683E-02
   0.288709E-03
   0.288709E-03
   0.288709E-03
   0.288709E-03
   0.432088E-03
   0.432088E-03
   0.432088E-03
   0.432088E-03
   0.430624E-03
   0.430624E-03
   0.430624E-03
   0.430624E-03
   0.597297E-03
   0.597297E-03
   0.597297E-03
   0.100521E-06
   0.100521E-06
   0.100521E-06
   0.121182E-04
   0.121182E-04
   0.121182E-04
   0.184900E-02
   0.184900E-02
   0.184900E-02
   0.474736E-03
   0.474736E-03
   0.474736E-03
   0.474736E-03
   0.476991E-03
   0.476991E-03
   0.476991E-03
   0.476991E-03
   0.251993E-03
   0.251993E-03
   0.251993E-03
   0.251993E-03
   0.602601E-03
   0.602601E-03
   0.602601E-03
   0.602601E-03
   0.191272E-02
   0.191272E-02
   0.191272E-02
   0.807937E-03
   0.807937E-03
   0.807937E-03
   0.135053E-05
   0.135053E-05
   0.135053E-05
   0.697644E-03
   0.697644E-03
   0.697644E-03
   0.697644E-03
   0.843371E-03
   0.843371E-03
   0.843371E-03
   0.843371E-03
   0.254870E-05
   0.254870E-05
   0.254870E-05
   0.121646E-02
   0.121646E-02
   0.121646E-02
   0.146724E-02
   0.146724E-02
   0.146724E-02
   0.129517E-02
   0.129517E-02
   0.129517E-02
   0.129517E-02
   0.114609E-02
   0.114609E-02
   0.114609E-02
   0.114609E-02
   0.612434E-03
   0.612434E-03
   0.612434E-03
   0.435557E-03
   0.435557E-03
   0.435557E-03
   0.435557E-03
   0.288268E-05
   0.288268E-05
   0.288268E-05
   0.132442E-02
   0.132442E-02
   0.132442E-02
   0.146848E-02
   0.146848E-02
   0.146848E-02
   0.121059E-02
   0.121059E-02
   0.121059E-02
   0.121059E-02
   0.648461E-03
   0.648461E-03
   0.648461E-03
   0.968785E-03
   0.968785E-03
   0.968785E-03
   0.968785E-03
   0.192475E-04
   0.192475E-04
   0.192475E-04
   0.348238E-03
   0.348238E-03
   0.348238E-03
   0.348238E-03
   0.995997E-05
   0.995997E-05
   0.995997E-05
   0.264228E-03
   0.264228E-03
   0.264228E-03
   0.264228E-03
   0.123922E-02
   0.123922E-02
   0.123922E-02
   0.123922E-02
   0.153556E-02
   0.153556E-02
   0.153556E-02
   0.114236E-02
   0.114236E-02
   0.114236E-02
   0.114236E-02
   0.132488E-02
   0.132488E-02
   0.132488E-02
   0.132488E-02
   0.611788E-03
   0.611788E-03
   0.611788E-03
   0.839670E-03
   0.839670E-03
   0.839670E-03
   0.839670E-03
   0.675291E-03
   0.675291E-03
   0.675291E-03
   0.199030E-02
   0.199030E-02
   0.199030E-02
   0.763391E-03
   0.763391E-03
   0.763391E-03
   0.623084E-03
   0.623084E-03
   0.623084E-03
   0.623084E-03
   0.101467E-05
   0.101467E-05
   0.101467E-05
   0.176749E-05
   0.176749E-05
   0.176749E-05
   0.508121E-05
   0.508121E-05
   0.508121E-05
   0.131739E-02
   0.131739E-02
   0.131739E-02
   0.103534E-04
   0.103534E-04
   0.103534E-04
   0.555578E-03
   0.555578E-03
   0.555578E-03
   0.555578E-03
   0.189079E-02
   0.189079E-02
   0.189079E-02
   0.574889E-03
   0.574889E-03
   0.574889E-03
   0.574889E-03
   0.136760E-02
   0.136760E-02
   0.136760E-02
   0.149578E-02
   0.149578E-02
   0.149578E-02
   0.123416E-02
   0.123416E-02
   0.123416E-02
   0.123416E-02
   0.434298E-03
   0.434298E-03
   0.434298E-03
   0.434298E-03
   0.610703E-03
   0.610703E-03
   0.610703E-03
   0.229679E-06
   0.229679E-06
   0.229679E-06
   0.122108E-02
   0.122108E-02
   0.122108E-02
   0.122108E-02
   0.148589E-02
   0.148589E-02
   0.148589E-02
   0.147913E-02
   0.147913E-02
   0.147913E-02
   0.648542E-03
   0.648542E-03
   0.648542E-03
   0.823006E-03
   0.823006E-03
   0.823006E-03
   0.823006E-03
   0.597325E-03
   0.597325E-03
   0.597325E-03
   0.677645E-03
   0.677645E-03
   0.677645E-03
   0.245668E-03
   0.245668E-03
   0.245668E-03
   0.192760E-03
   0.192760E-03
   0.192760E-03
   0.613755E-03
   0.613755E-03
   0.613755E-03
   0.613755E-03
   0.664763E-03
   0.664763E-03
   0.664763E-03
   0.699289E-03
   0.699289E-03
   0.699289E-03
   0.699289E-03
   0.123996E-02
   0.123996E-02
   0.123996E-02
   0.123996E-02
   0.562216E-03
   0.562216E-03
   0.562216E-03
   0.858995E-04
   0.858995E-04
   0.858995E-04
   0.187112E-02
   0.187112E-02
   0.187112E-02
   0.394834E-03
   0.394834E-03
   0.394834E-03
   0.394834E-03
   0.385059E-03
   0.385059E-03
   0.385059E-03
   0.385059E-03
   0.562329E-03
   0.562329E-03
   0.562329E-03
   0.964163E-03
   0.964163E-03
   0.964163E-03
   0.964163E-03
   0.837472E-04
   0.837472E-04
   0.837472E-04
   0.335711E-03
   0.335711E-03
   0.335711E-03
   0.796288E-03
   0.796288E-03
   0.796288E-03
   0.796288E-03
   0.113534E-02
   0.113534E-02
   0.113534E-02
   0.598438E-03
   0.598438E-03
   0.598438E-03
   0.151890E-05
   0.151890E-05
   0.151890E-05
   0.995786E-05
   0.995786E-05
   0.995786E-05
   0.210975E-03
   0.210975E-03
   0.210975E-03
   0.427196E-05
   0.427196E-05
   0.427196E-05
   0.136151E-02
   0.136151E-02
   0.136151E-02
   0.610008E-03
   0.610008E-03
   0.610008E-03
   0.610008E-03
   0.187513E-02
   0.187513E-02
   0.187513E-02
   0.802854E-03
   0.802854E-03
   0.802854E-03
   0.843111E-03
   0.843111E-03
   0.843111E-03
   0.843111E-03
   0.696794E-03
   0.696794E-03
   0.696794E-03
   0.696794E-03
   0.972033E-06
   0.972033E-06
   0.972033E-06
   0.237709E-03
   0.237709E-03
   0.237709E-03
   0.761894E-03
   0.761894E-03
   0.761894E-03
   0.648906E-03
   0.648906E-03
   0.648906E-03
   0.648906E-03
   0.129994E-02
   0.129994E-02
   0.129994E-02
   0.129994E-02
   0.122303E-02
   0.122303E-02
   0.122303E-02
   0.115019E-02
   0.115019E-02
   0.115019E-02
   0.115019E-02
   0.814872E-03
   0.814872E-03
   0.814872E-03
   0.814872E-03
   0.651556E-03
   0.651556E-03
   0.651556E-03
   0.675624E-03
   0.675624E-03
   0.675624E-03
   0.626236E-03
   0.626236E-03
   0.626236E-03
   0.626236E-03
   0.246152E-03
   0.246152E-03
   0.246152E-03
   0.664839E-03
   0.664839E-03
   0.664839E-03
   0.254219E-03
   0.254219E-03
   0.254219E-03
   0.254219E-03
   0.191026E-02
   0.191026E-02
   0.191026E-02
   0.605008E-03
   0.605008E-03
   0.605008E-03
   0.605008E-03
   0.806633E-03
   0.806633E-03
   0.806633E-03
   0.124334E-02
   0.124334E-02
   0.124334E-02
   0.124334E-02
   0.154373E-02
   0.154373E-02
   0.154373E-02
   0.150643E-02
   0.150643E-02
   0.150643E-02
   0.452918E-05
   0.452918E-05
   0.452918E-05
   0.248680E-03
   0.248680E-03
   0.248680E-03
   0.678757E-03
   0.678757E-03
   0.678757E-03
   0.678757E-03
   0.673063E-03
   0.673063E-03
   0.673063E-03
   0.673063E-03
   0.375794E-06
   0.375794E-06
   0.375794E-06
   0.185585E-05
   0.185585E-05
   0.185585E-05
   0.817432E-03
   0.817432E-03
   0.817432E-03
   0.817432E-03
   0.812992E-03
   0.812992E-03
   0.812992E-03
   0.812992E-03
   0.239387E-04
   0.239387E-04
   0.239387E-04
   0.120194E-02
   0.120194E-02
   0.120194E-02
   0.120194E-02
   0.355886E-03
   0.355886E-03
   0.355886E-03
   0.355886E-03
   0.767391E-03
   0.767391E-03
   0.767391E-03
   0.767391E-03
   0.614935E-03
   0.614935E-03
   0.614935E-03
   0.614935E-03
   0.506313E-03
   0.506313E-03
   0.506313E-03
   0.123914E-02
   0.123914E-02
   0.123914E-02
   0.123914E-02
   0.264329E-03
   0.264329E-03
   0.264329E-03
   0.264329E-03
   0.995053E-05
   0.995053E-05
   0.995053E-05
   0.114357E-02
   0.114357E-02
   0.114357E-02
   0.114357E-02
   0.154083E-02
   0.154083E-02
   0.154083E-02
   0.132583E-02
   0.132583E-02
   0.132583E-02
   0.132583E-02
   0.395854E-03
   0.395854E-03
   0.395854E-03
   0.395854E-03
   0.198382E-02
   0.198382E-02
   0.198382E-02
   0.387156E-03
   0.387156E-03
   0.387156E-03
   0.387156E-03
   0.833026E-03
   0.833026E-03
   0.833026E-03
   0.833026E-03
   0.536457E-03
   0.536457E-03
   0.536457E-03
   0.637803E-03
   0.637803E-03
   0.637803E-03
   0.637803E-03
   0.964870E-03
   0.964870E-03
   0.964870E-03
   0.964870E-03
   0.560760E-03
   0.560760E-03
   0.560760E-03
   0.841469E-04
   0.841469E-04
   0.841469E-04
   0.794805E-03
   0.794805E-03
   0.794805E-03
   0.794805E-03
   0.329068E-03
   0.329068E-03
   0.329068E-03
   0.113090E-02
   0.113090E-02
   0.113090E-02
   0.132759E-02
   0.132759E-02
   0.132759E-02
   0.132759E-02
   0.122246E-02
   0.122246E-02
   0.122246E-02
   0.114451E-02
   0.114451E-02
   0.114451E-02
   0.114451E-02
   0.828426E-06
   0.828426E-06
   0.828426E-06
   0.830496E-03
   0.830496E-03
   0.830496E-03
   0.830496E-03
   0.655376E-03
   0.655376E-03
   0.655376E-03
   0.655376E-03
   0.120293E-02
   0.120293E-02
   0.120293E-02
   0.120293E-02
   0.255997E-04
   0.255997E-04
   0.255997E-04
   0.356276E-03
   0.356276E-03
   0.356276E-03
   0.356276E-03
   0.619955E-03
   0.619955E-03
   0.619955E-03
   0.619955E-03
   0.767462E-03
   0.767462E-03
   0.767462E-03
   0.767462E-03
   0.511221E-03
   0.511221E-03
   0.511221E-03
   0.282810E-03
   0.282810E-03
   0.282810E-03
   0.282810E-03
   0.274059E-03
   0.274059E-03
   0.274059E-03
   0.274059E-03
   0.729874E-05
   0.729874E-05
   0.729874E-05
   0.127383E-05
   0.127383E-05
   0.127383E-05
   0.949477E-03
   0.949477E-03
   0.949477E-03
   0.949477E-03
   0.948611E-03
   0.948611E-03
   0.948611E-03
   0.948611E-03
   0.189254E-02
   0.189254E-02
   0.189254E-02
   0.557193E-03
   0.557193E-03
   0.557193E-03
   0.557193E-03
   0.572600E-03
   0.572600E-03
   0.572600E-03
   0.572600E-03
   0.100833E-04
   0.100833E-04
   0.100833E-04
   0.150105E-02
   0.150105E-02
   0.150105E-02
   0.136775E-02
   0.136775E-02
   0.136775E-02
   0.123451E-02
   0.123451E-02
   0.123451E-02
   0.123451E-02
   0.335886E-03
   0.335886E-03
   0.335886E-03
   0.765881E-03
   0.765881E-03
   0.765881E-03
   0.763827E-03
   0.763827E-03
   0.763827E-03
   0.186524E-02
   0.186524E-02
   0.186524E-02
   0.623234E-03
   0.623234E-03
   0.623234E-03
   0.623234E-03
   0.979246E-03
   0.979246E-03
   0.979246E-03
   0.979246E-03
   0.755278E-03
   0.755278E-03
   0.755278E-03
   0.766346E-03
   0.766346E-03
   0.766346E-03
   0.114922E-02
   0.114922E-02
   0.114922E-02
   0.114922E-02
   0.148183E-02
   0.148183E-02
   0.148183E-02
   0.129691E-02
   0.129691E-02
   0.129691E-02
   0.129691E-02
   0.187878E-02
   0.187878E-02
   0.187878E-02
   0.615689E-03
   0.615689E-03
   0.615689E-03
   0.615689E-03
   0.807042E-03
   0.807042E-03
   0.807042E-03
   0.179732E-06
   0.179732E-06
   0.179732E-06
   0.977727E-03
   0.977727E-03
   0.977727E-03
   0.977727E-03
   0.639869E-03
   0.639869E-03
   0.639869E-03
   0.639869E-03
   0.758519E-03
   0.758519E-03
   0.758519E-03
   0.237512E-03
   0.237512E-03
   0.237512E-03
   0.648218E-03
   0.648218E-03
   0.648218E-03
   0.648218E-03
   0.136268E-02
   0.136268E-02
   0.136268E-02
   0.501221E-05
   0.501221E-05
   0.501221E-05
   0.474256E-03
   0.474256E-03
   0.474256E-03
   0.474256E-03
   0.185863E-02
   0.185863E-02
   0.185863E-02
   0.481398E-03
   0.481398E-03
   0.481398E-03
   0.481398E-03
   0.885503E-05
   0.885503E-05
   0.885503E-05
   0.249523E-06
   0.249523E-06
   0.249523E-06
   0.752540E-03
   0.752540E-03
   0.752540E-03
   0.566102E-03
   0.566102E-03
   0.566102E-03
   0.566102E-03
   0.567313E-03
   0.567313E-03
   0.567313E-03
   0.567313E-03
   0.198710E-02
   0.198710E-02
   0.198710E-02
   0.393943E-03
   0.393943E-03
   0.393943E-03
   0.393943E-03
   0.384337E-03
   0.384337E-03
   0.384337E-03
   0.384337E-03
   0.537464E-03
   0.537464E-03
   0.537464E-03
   0.833064E-03
   0.833064E-03
   0.833064E-03
   0.833064E-03
   0.637405E-03
   0.637405E-03
   0.637405E-03
   0.637405E-03
   0.244116E-03
   0.244116E-03
   0.244116E-03
   0.114034E-02
   0.114034E-02
   0.114034E-02
   0.797697E-03
   0.797697E-03
   0.797697E-03
   0.797697E-03
   0.764912E-03
   0.764912E-03
   0.764912E-03
   0.764912E-03
   0.538334E-03
   0.538334E-03
   0.538334E-03
   0.766554E-03
   0.766554E-03
   0.766554E-03
   0.626699E-03
   0.626699E-03
   0.626699E-03
   0.626699E-03
   0.764611E-03
   0.764611E-03
   0.764611E-03
   0.978537E-03
   0.978537E-03
   0.978537E-03
   0.978537E-03
   0.131480E-02
   0.131480E-02
   0.131480E-02
   0.147567E-02
   0.147567E-02
   0.147567E-02
   0.121478E-02
   0.121478E-02
   0.121478E-02
   0.121478E-02
   0.597181E-06
   0.597181E-06
   0.597181E-06
   0.564403E-03
   0.564403E-03
   0.564403E-03
   0.564403E-03
   0.767857E-03
   0.767857E-03
   0.767857E-03
   0.154954E-02
   0.154954E-02
   0.154954E-02
   0.151060E-02
   0.151060E-02
   0.151060E-02
   0.124406E-02
   0.124406E-02
   0.124406E-02
   0.124406E-02
   0.247833E-03
   0.247833E-03
   0.247833E-03
   0.438389E-05
   0.438389E-05
   0.438389E-05
   0.130806E-02
   0.130806E-02
   0.130806E-02
   0.211736E-05
   0.211736E-05
   0.211736E-05
   0.109457E-05
   0.109457E-05
   0.109457E-05
   0.247863E-06
   0.247863E-06
   0.247863E-06
   0.205360E-03
   0.205360E-03
   0.205360E-03
   0.666771E-03
   0.666771E-03
   0.666771E-03
   0.623307E-03
   0.623307E-03
   0.623307E-03
   0.623307E-03
   0.938870E-03
   0.938870E-03
   0.938870E-03
   0.938870E-03
   0.511383E-03
   0.511383E-03
   0.511383E-03
   0.764119E-03
   0.764119E-03
   0.764119E-03
   0.122151E-02
   0.122151E-02
   0.122151E-02
   0.114504E-02
   0.114504E-02
   0.114504E-02
   0.114504E-02
   0.132648E-02
   0.132648E-02
   0.132648E-02
   0.132648E-02
   0.653960E-03
   0.653960E-03
   0.653960E-03
   0.653960E-03
   0.831635E-03
   0.831635E-03
   0.831635E-03
   0.831635E-03
   0.268283E-06
   0.268283E-06
   0.268283E-06
   0.815519E-03
   0.815519E-03
   0.815519E-03
   0.815519E-03
   0.618496E-03
   0.618496E-03
   0.618496E-03
   0.618496E-03
   0.122099E-02
   0.122099E-02
   0.122099E-02
   0.122099E-02
   0.148885E-02
   0.148885E-02
   0.148885E-02
   0.148798E-02
   0.148798E-02
   0.148798E-02
   0.442382E-05
   0.442382E-05
   0.442382E-05
   0.784095E-03
   0.784095E-03
   0.784095E-03
   0.554514E-03
   0.554514E-03
   0.554514E-03
   0.554514E-03
   0.130201E-02
   0.130201E-02
   0.130201E-02
   0.130201E-02
   0.115199E-02
   0.115199E-02
   0.115199E-02
   0.115199E-02
   0.634886E-03
   0.634886E-03
   0.634886E-03
   0.634886E-03
   0.976849E-03
   0.976849E-03
   0.976849E-03
   0.976849E-03
   0.327965E-03
   0.327965E-03
   0.327965E-03
   0.762261E-03
   0.762261E-03
   0.762261E-03
   0.109935E-04
   0.109935E-04
   0.109935E-04
   0.223471E-03
   0.223471E-03
   0.223471E-03
   0.702451E-06
   0.702451E-06
   0.702451E-06
   0.776167E-03
   0.776167E-03
   0.776167E-03
   0.350499E-06
   0.350499E-06
   0.350499E-06
   0.634989E-03
   0.634989E-03
   0.634989E-03
   0.634989E-03
   0.814995E-03
   0.814995E-03
   0.814995E-03
   0.814995E-03
   0.943071E-03
   0.943071E-03
   0.943071E-03
   0.943071E-03
   0.614618E-03
   0.614618E-03
   0.614618E-03
   0.614618E-03
   0.246434E-03
   0.246434E-03
   0.246434E-03
   0.797443E-03
   0.797443E-03
   0.797443E-03
   0.797443E-03
   0.113320E-02
   0.113320E-02
   0.113320E-02
   0.762183E-03
   0.762183E-03
   0.762183E-03
   0.762183E-03
   0.540809E-03
   0.540809E-03
   0.540809E-03
   0.668961E-03
   0.668961E-03
   0.668961E-03
   0.514572E-03
   0.514572E-03
   0.514572E-03

SCALARS  vx_core_radius  double
LOOKUP_TABLE default
   0.000000E+00
   0.000000E+00
   0.000000E+00
   0.000000E+00
   0.000000E+00
   0.000000E+00
   0.000000E+00
   0.000000E+00
   0.000000E+00
   0.000000E+00
   0.000000E+00
   0.000000E+00
   0.000000E+00
   0.000000E+00
   0.000000E+00
   0.000000E+00
   0.000000E+00
   0.000000E+00
   0.000000E+00
   0.000000E+00
   0.000000E+00
   0.000000E+00
   0.000000E+00
   0.000000E+00
   0.000000E+00
   0.000000E+00
   0.000000E+00
   0.000000E+00
   0.000000E+00
   0.000000E+00
   0.000000E+00