# vtk DataFile Version 2.0
This file was created by Fortran
ASCII
DATASET UNSTRUCTURED_GRID
POINTS  1138  DOUBLE
  -0.329000E+00   0.184400E+00  -0.328200E+00
  -0.426100E+00   0.182100E+00  -0.187800E+00
  -0.187800E+00   0.182100E+00  -0.426100E+00
  -0.326800E+00   0.328600E+00  -0.187600E+00
  -0.187600E+00   0.328600E+00  -0.326800E+00
  -0.404500E+00   0.000000E+00  -0.293900E+00
  -0.293900E+00   0.000000E+00  -0.404500E+00
  -0.475500E+00   0.000000E+00  -0.154500E+00
  -0.154500E+00   0.000000E+00  -0.475500E+00
  -0.182200E+00   0.428500E+00  -0.182200E+00
  -0.404500E+00   0.293900E+00   0.000000E+00
   0.000000E+00   0.293900E+00  -0.404500E+00
  -0.475500E+00   0.154500E+00   0.000000E+00
   0.000000E+00   0.154500E+00  -0.475500E+00
  -0.328600E+00  -0.184500E+00  -0.328600E+00
  -0.293900E+00   0.404500E+00   0.000000E+00
   0.000000E+00   0.404500E+00  -0.293900E+00
  -0.426100E+00  -0.182100E+00  -0.187700E+00
  -0.187700E+00  -0.182100E+00  -0.426100E+00
  -0.500000E+00   0.000000E+00   0.000000E+00
   0.000000E+00   0.000000E+00  -0.500000E+00
  -0.154500E+00   0.475500E+00   0.000000E+00
   0.000000E+00   0.475500E+00  -0.154500E+00
  -0.475500E+00  -0.154500E+00   0.000000E+00
   0.000000E+00  -0.154500E+00  -0.475500E+00
  -0.426100E+00   0.182100E+00   0.187800E+00
   0.187800E+00   0.182100E+00  -0.426100E+00
  -0.326800E+00  -0.328600E+00  -0.187600E+00
  -0.187600E+00  -0.328600E+00  -0.326800E+00
  -0.326800E+00   0.328600E+00   0.187600E+00
   0.187600E+00   0.328600E+00  -0.326800E+00
  -0.475500E+00   0.000000E+00   0.154500E+00
   0.154500E+00   0.000000E+00  -0.475500E+00
   0.000000E+00   0.500000E+00   0.000000E+00
  -0.182200E+00   0.428500E+00   0.182200E+00
  -0.404500E+00  -0.293900E+00   0.000000E+00
   0.182200E+00   0.428500E+00  -0.182200E+00
   0.000000E+00  -0.293900E+00  -0.404500E+00
  -0.426100E+00  -0.182100E+00   0.187700E+00
   0.187700E+00  -0.182100E+00  -0.426100E+00
  -0.182200E+00  -0.428500E+00  -0.182200E+00
   0.000000E+00   0.475500E+00   0.154500E+00
   0.154500E+00   0.475500E+00   0.000000E+00
  -0.404500E+00   0.000000E+00   0.293900E+00
   0.293900E+00   0.000000E+00  -0.404500E+00
  -0.328200E+00   0.184400E+00   0.329000E+00
   0.329000E+00   0.184400E+00  -0.328200E+00
  -0.293900E+00  -0.404500E+00   0.000000E+00
   0.000000E+00  -0.404500E+00  -0.293900E+00
  -0.187600E+00   0.328600E+00   0.326800E+00
   0.326800E+00   0.328600E+00  -0.187600E+00
  -0.326800E+00  -0.328600E+00   0.187600E+00
   0.187600E+00  -0.328600E+00  -0.326800E+00
   0.000000E+00   0.404500E+00   0.293900E+00
   0.293900E+00   0.404500E+00   0.000000E+00
  -0.328600E+00  -0.184500E+00   0.328600E+00
   0.328600E+00  -0.184500E+00  -0.328600E+00
  -0.293900E+00   0.000000E+00   0.404500E+00
   0.404500E+00   0.000000E+00  -0.293900E+00
  -0.154500E+00  -0.475500E+00   0.000000E+00
   0.000000E+00  -0.475500E+00  -0.154500E+00
   0.182200E+00   0.428500E+00   0.182200E+00
  -0.187800E+00   0.182100E+00   0.426100E+00
   0.426100E+00   0.182100E+00  -0.187800E+00
   0.000000E+00   0.293900E+00   0.404500E+00
  -0.182200E+00  -0.428500E+00   0.182200E+00
   0.404500E+00   0.293900E+00   0.000000E+00
   0.182200E+00  -0.428500E+00  -0.182200E+00
   0.000000E+00  -0.500000E+00   0.000000E+00
  -0.154500E+00   0.000000E+00   0.475500E+00
   0.475500E+00   0.000000E+00  -0.154500E+00
  -0.187600E+00  -0.328600E+00   0.326800E+00
   0.326800E+00  -0.328600E+00  -0.187600E+00
   0.187600E+00   0.328600E+00   0.326800E+00
   0.326800E+00   0.328600E+00   0.187600E+00
  -0.187700E+00  -0.182100E+00   0.426100E+00
   0.426100E+00  -0.182100E+00  -0.187700E+00
   0.000000E+00   0.154500E+00   0.475500E+00
   0.475500E+00   0.154500E+00   0.000000E+00
   0.000000E+00  -0.475500E+00   0.154500E+00
   0.154500E+00  -0.475500E+00   0.000000E+00
   0.000000E+00   0.000000E+00   0.500000E+00
   0.500000E+00   0.000000E+00   0.000000E+00
   0.187800E+00   0.182100E+00   0.426100E+00
   0.426100E+00   0.182100E+00   0.187800E+00
   0.000000E+00  -0.404500E+00   0.293900E+00
   0.293900E+00  -0.404500E+00   0.000000E+00
   0.329000E+00   0.184400E+00   0.328200E+00
   0.000000E+00  -0.154500E+00   0.475500E+00
   0.475500E+00  -0.154500E+00   0.000000E+00
   0.000000E+00  -0.293900E+00   0.404500E+00
   0.404500E+00  -0.293900E+00   0.000000E+00
   0.182200E+00  -0.428500E+00   0.182200E+00
   0.154500E+00   0.000000E+00   0.475500E+00
   0.475500E+00   0.000000E+00   0.154500E+00
   0.293900E+00   0.000000E+00   0.404500E+00
   0.404500E+00   0.000000E+00   0.293900E+00
   0.187600E+00  -0.328600E+00   0.326800E+00
   0.326800E+00  -0.328600E+00   0.187600E+00
   0.187700E+00  -0.182100E+00   0.426100E+00
   0.426100E+00  -0.182100E+00   0.187700E+00
   0.328600E+00  -0.184500E+00   0.328600E+00
  -0.409917E+00   0.182483E+00  -0.211200E+00
  -0.377550E+00   0.183250E+00  -0.258000E+00
  -0.345183E+00   0.184017E+00  -0.304800E+00
  -0.395063E+00   0.230500E-01  -0.298187E+00
  -0.376188E+00   0.691500E-01  -0.306762E+00
  -0.357313E+00   0.115250E+00  -0.315337E+00
  -0.338438E+00   0.161350E+00  -0.323912E+00
  -0.298287E+00   0.230500E-01  -0.394962E+00
  -0.307063E+00   0.691500E-01  -0.375887E+00
  -0.315837E+00   0.115250E+00  -0.356812E+00
  -0.324612E+00   0.161350E+00  -0.337737E+00
  -0.211333E+00   0.182483E+00  -0.409783E+00
  -0.258400E+00   0.183250E+00  -0.377150E+00
  -0.305467E+00   0.184017E+00  -0.344517E+00
  -0.327075E+00   0.310575E+00  -0.205175E+00
  -0.327625E+00   0.274525E+00  -0.240325E+00
  -0.328175E+00   0.238475E+00  -0.275475E+00
  -0.328725E+00   0.202425E+00  -0.310625E+00
  -0.205275E+00   0.310575E+00  -0.326975E+00
  -0.240625E+00   0.274525E+00  -0.327325E+00
  -0.275975E+00   0.238475E+00  -0.327675E+00
  -0.311325E+00   0.202425E+00  -0.328025E+00
  -0.467267E+00   0.159100E+00  -0.313000E-01
  -0.450800E+00   0.168300E+00  -0.939000E-01
  -0.434333E+00   0.177500E+00  -0.156500E+00
  -0.467267E+00   0.303500E-01  -0.160050E+00
  -0.450800E+00   0.910500E-01  -0.171150E+00
  -0.434333E+00   0.151750E+00  -0.182250E+00
  -0.407200E+00   0.227625E-01  -0.280637E+00
  -0.412600E+00   0.682875E-01  -0.254112E+00
  -0.418000E+00   0.113813E+00  -0.227587E+00
  -0.423400E+00   0.159337E+00  -0.201062E+00
  -0.343350E+00   0.304183E+00  -0.187633E+00
  -0.376450E+00   0.255350E+00  -0.187700E+00
  -0.409550E+00   0.206517E+00  -0.187767E+00
  -0.407200E+00   0.279925E+00  -0.234750E-01
  -0.412600E+00   0.251975E+00  -0.704250E-01
  -0.418000E+00   0.224025E+00  -0.117375E+00
  -0.423400E+00   0.196075E+00  -0.164325E+00
  -0.280637E+00   0.227625E-01  -0.407200E+00
  -0.254112E+00   0.682875E-01  -0.412600E+00
  -0.227587E+00   0.113813E+00  -0.418000E+00
  -0.201062E+00   0.159337E+00  -0.423400E+00
  -0.160050E+00   0.303500E-01  -0.467267E+00
  -0.171150E+00   0.910500E-01  -0.450800E+00
  -0.182250E+00   0.151750E+00  -0.434333E+00
  -0.187633E+00   0.304183E+00  -0.343350E+00
  -0.187700E+00   0.255350E+00  -0.376450E+00
  -0.187767E+00   0.206517E+00  -0.409550E+00
  -0.234750E-01   0.279925E+00  -0.407200E+00
  -0.704250E-01   0.251975E+00  -0.412600E+00
  -0.117375E+00   0.224025E+00  -0.418000E+00
  -0.164325E+00   0.196075E+00  -0.423400E+00
  -0.313000E-01   0.159100E+00  -0.467267E+00
  -0.939000E-01   0.168300E+00  -0.450800E+00
  -0.156500E+00   0.177500E+00  -0.434333E+00
  -0.394788E+00   0.298237E+00  -0.234500E-01
  -0.375362E+00   0.306912E+00  -0.703500E-01
  -0.355938E+00   0.315588E+00  -0.117250E+00
  -0.336512E+00   0.324263E+00  -0.164150E+00
  -0.210800E+00   0.328600E+00  -0.303600E+00
  -0.257200E+00   0.328600E+00  -0.257200E+00
  -0.303600E+00   0.328600E+00  -0.210800E+00
  -0.206300E+00   0.411850E+00  -0.183100E+00
  -0.254500E+00   0.378550E+00  -0.184900E+00
  -0.302700E+00   0.345250E+00  -0.186700E+00
  -0.298013E+00   0.395013E+00  -0.234500E-01
  -0.306237E+00   0.376038E+00  -0.703500E-01
  -0.314462E+00   0.357063E+00  -0.117250E+00
  -0.322688E+00   0.338088E+00  -0.164150E+00
  -0.183100E+00   0.411850E+00  -0.206300E+00
  -0.184900E+00   0.378550E+00  -0.254500E+00
  -0.186700E+00   0.345250E+00  -0.302700E+00
  -0.234500E-01   0.298237E+00  -0.394788E+00
  -0.703500E-01   0.306912E+00  -0.375362E+00
  -0.117250E+00   0.315588E+00  -0.355938E+00
  -0.164150E+00   0.324263E+00  -0.336512E+00
  -0.234500E-01   0.395013E+00  -0.298013E+00
  -0.703500E-01   0.376038E+00  -0.306237E+00
  -0.117250E+00   0.357063E+00  -0.314462E+00
  -0.164150E+00   0.338088E+00  -0.322688E+00
  -0.312333E+00   0.000000E+00  -0.386067E+00
  -0.349200E+00   0.000000E+00  -0.349200E+00
  -0.386067E+00   0.000000E+00  -0.312333E+00
  -0.423400E+00  -0.159338E+00  -0.200975E+00
  -0.418000E+00  -0.113813E+00  -0.227525E+00
  -0.412600E+00  -0.682875E-01  -0.254075E+00
  -0.407200E+00  -0.227625E-01  -0.280625E+00
  -0.463667E+00   0.000000E+00  -0.177733E+00
  -0.440000E+00   0.000000E+00  -0.224200E+00
  -0.416333E+00   0.000000E+00  -0.270667E+00
  -0.338087E+00  -0.161438E+00  -0.324263E+00
  -0.357063E+00  -0.115313E+00  -0.315588E+00
  -0.376038E+00  -0.691875E-01  -0.306913E+00
  -0.395012E+00  -0.230625E-01  -0.298237E+00
  -0.177733E+00   0.000000E+00  -0.463667E+00
  -0.224200E+00   0.000000E+00  -0.440000E+00
  -0.270667E+00   0.000000E+00  -0.416333E+00
  -0.324263E+00  -0.161438E+00  -0.338087E+00
  -0.315588E+00  -0.115313E+00  -0.357063E+00
  -0.306913E+00  -0.691875E-01  -0.376038E+00
  -0.298237E+00  -0.230625E-01  -0.395012E+00
  -0.200975E+00  -0.159338E+00  -0.423400E+00
  -0.227525E+00  -0.113813E+00  -0.418000E+00
  -0.254075E+00  -0.682875E-01  -0.412600E+00
  -0.280625E+00  -0.227625E-01  -0.407200E+00
  -0.475500E+00  -0.135187E+00  -0.193125E-01
  -0.475500E+00  -0.965625E-01  -0.579375E-01
[...]
POINT_DATA  1138
SCALARS  vx_strength  double
LOOKUP_TABLE default
   0.000000E+00
   0.000000E+00
   0.000000E+00
   0.000000E+00
   0.000000E+00
   0.000000E+00
   0.000000E+00
   0.000000E+00
   0.000000E+00
   0.000000E+00
   0.000000E+00
   0.000000E+00
   0.000000E+00
   0.000000E+00
   0.000000E+00
   0.000000E+00
   0.000000E+00
   0.000000E+00
   0.000000E+00
   0.000000E+00
   0.000000E+00
   0.000000E+00
   0.000000E+00
   0.000000E+00
   0.000000E+00
   0.000000E+00
   0.000000E+00
   0.000000E+00
   0.000000E+00
   0.000000E+00
   0.000000E+00
   0.000000E+00
   0.000000E+00
   0.000000E+00
   0.000000E+00
   0.000000E+00
   0.000000E+00
   0.000000E+00
   0.000000E+00
   0.000000E+00
   0.000000E+00
   0.000000E+00
   0.000000E+00
   0.000000E+00
   0.000000E+00
   0.000000E+00
   0.000000E+00
   0.000000E+00
   0.000000E+00
   0.000000E+00
   0.000000E+00
   0.000000E+00
   0.000000E+00
   0.000000E+00
   0.000000E+00
   0.000000E+00
   0.000000E+00
   0.000000E+00
   0.000000E+00
   0.000000E+00
   0.000000E+00
   0.000000E+00
   0.000000E+00
   0.000000E+00
   0.000000E+00
   0.000000E+00
   0.000000E+00
   0.000000E+00
   0.000000E+00
   0.000000E+00
   0.000000E+00
   0.000000E+00
   0.000000E+00
   0.000000E+00
   0.000000E+00
   0.000000E+00
   0.000000E+00
   0.000000E+00
   0.000000E+00
   0.000000E+00
   0.000000E+00
   0.000000E+00
   0.000000E+00
   0.000000E+00
   0.000000E+00
   0.000000E+00
   0.000000E+00
   0.000000E+00
   0.000000E+00
   0.000000E+00
   0.000000E+00
   0.000000E+00
   0.000000E+00
   0.000000E+00
   0.000000E+00
   0.000000E+00
   0.000000E+00
   0.000000E+00
   0.000000E+00
   0.000000E+00
   0.000000E+00
   0.000000E+00
   0.614981E-03
   0.614981E-03
   0.614981E-03
   0.572775E-03
   0.572775E-03
   0.572775E-03
   0.572775E-03
   0.110526E-02
   0.110526E-02
   0.110526E-02
   0.110526E-02
   0.927404E-04
   0.927404E-04
   0.927404E-04
   0.864643E-03
   0.864643E-03
   0.864643E-03
   0.864643E-03
   0.179388E-03
   0.179388E-03
   0.179388E-03
   0.179388E-03
   0.556655E-03
   0.556655E-03
   0.556655E-03
   0.550782E-03
   0.550782E-03
   0.550782E-03
   0.750436E-03
   0.750436E-03
   0.750436E-03
   0.750436E-03
   0.631572E-03
   0.631572E-03
   0.631572E-03
   0.789524E-03
   0.789524E-03
   0.789524E-03
   0.789524E-03
   0.204006E-03
   0.204006E-03
   0.204006E-03
   0.204006E-03
   0.177741E-02
   0.177741E-02
   0.177741E-02
   0.203623E-02
   0.203623E-02
   0.203623E-02
   0.973366E-03
   0.973366E-03
   0.973366E-03
   0.973366E-03
   0.107964E-02
   0.107964E-02
   0.107964E-02
   0.585665E-03
   0.585665E-03
   0.585665E-03
   0.585665E-03
   0.338458E-03
   0.338458E-03
   0.338458E-03
   0.907927E-04
   0.907927E-04
   0.907927E-04
   0.118978E-02
   0.118978E-02
   0.118978E-02
   0.118978E-02
   0.189305E-02
   0.189305E-02
   0.189305E-02
   0.768923E-03
   0.768923E-03
   0.768923E-03
   0.768923E-03
   0.733897E-03
   0.733897E-03
   0.733897E-03
   0.733897E-03
   0.858577E-05
   0.858577E-05
   0.858577E-05
   0.761375E-03
   0.761375E-03
   0.761375E-03
   0.761375E-03
   0.608263E-05
   0.608263E-05
   0.608263E-05
   0.577609E-03
   0.577609E-03
   0.577609E-03
   0.577609E-03
   0.161532E-04
   0.161532E-04
   0.161532E-04
   0.113745E-02
   0.113745E-02
   0.113745E-02
   0.113745E-02
   0.144507E-03
   0.144507E-03
   0.144507E-03
   0.144507E-03
   0.387452E-03
   0.387452E-03
   0.387452E-03
   0.387452E-03
   0.382733E-03
   0.382733E-03
   0.382733E-03
   0.382733E-03
   0.541731E-03
   0.541731E-03
   0.541731E-03
   0.323626E-05
   0.323626E-05
   0.323626E-05
   0.590811E-04
   0.590811E-04
   0.590811E-04
   0.174255E-02
   0.174255E-02
   0.174255E-02
   0.762778E-03
   0.762778E-03
   0.762778E-03
   0.762778E-03
   0.654283E-03
   0.654283E-03
   0.654283E-03
   0.654283E-03
   0.967196E-04
   0.967196E-04
   0.967196E-04
   0.967196E-04
   0.928104E-03
   0.928104E-03
   0.928104E-03
   0.928104E-03
   0.180329E-02
   0.180329E-02
   0.180329E-02
   0.106233E-02
   0.106233E-02
   0.106233E-02
   0.140085E-05
   0.140085E-05
   0.140085E-05
   0.590055E-03
   0.590055E-03
   0.590055E-03
   0.590055E-03
   0.786580E-03
   0.786580E-03
   0.786580E-03
   0.786580E-03
   0.247435E-06
   0.247435E-06
   0.247435E-06
   0.134831E-02
   0.134831E-02
   0.134831E-02
   0.161559E-02
   0.161559E-02
   0.161559E-02
   0.113951E-02
   0.113951E-02
   0.113951E-02
   0.113951E-02
   0.949136E-03
   0.949136E-03
   0.949136E-03
   0.949136E-03
   0.554891E-03
   0.554891E-03
   0.554891E-03
   0.383989E-03
   0.383989E-03
   0.383989E-03
   0.383989E-03
   0.383597E-07
   0.383597E-07
   0.383597E-07
   0.133414E-02
   0.133414E-02
   0.133414E-02
   0.135600E-02
   0.135600E-02
   0.135600E-02
   0.977420E-03
   0.977420E-03
   0.977420E-03
   0.977420E-03
   0.616339E-03
   0.616339E-03
   0.616339E-03
   0.876773E-03
   0.876773E-03
   0.876773E-03
   0.876773E-03
   0.116784E-03
   0.116784E-03
   0.116784E-03
   0.183901E-03
   0.183901E-03
   0.183901E-03
   0.183901E-03
   0.321596E-05
   0.321596E-05
   0.321596E-05
   0.950096E-04
   0.950096E-04
   0.950096E-04
   0.950096E-04
   0.118687E-02
   0.118687E-02
   0.118687E-02
   0.118687E-02
   0.163612E-02
   0.163612E-02
   0.163612E-02
   0.935918E-03
   0.935918E-03
   0.935918E-03
   0.935918E-03
   0.111987E-02
   0.111987E-02
   0.111987E-02
   0.111987E-02
   0.553189E-03
   0.553189E-03
   0.553189E-03
   0.785036E-03
   0.785036E-03
   0.785036E-03
   0.785036E-03
   0.641638E-03
   0.641638E-03
   0.641638E-03
   0.197996E-02
   0.197996E-02
   0.197996E-02
   0.102961E-02
   0.102961E-02
   0.102961E-02
   0.947225E-03
   0.947225E-03
   0.947225E-03
   0.947225E-03
   0.269614E-05
   0.269614E-05
   0.269614E-05
   0.501756E-06
   0.501756E-06
   0.501756E-06
   0.139694E-04
   0.139694E-04
   0.139694E-04
   0.128903E-02
   0.128903E-02
   0.128903E-02
   0.732201E-05
   0.732201E-05
   0.732201E-05
   0.710378E-03
   0.710378E-03
   0.710378E-03
   0.710378E-03
   0.180904E-02
   0.180904E-02
   0.180904E-02
   0.716464E-03
   0.716464E-03
   0.716464E-03
   0.716464E-03
   0.128616E-02
   0.128616E-02
   0.128616E-02
   0.135236E-02
   0.135236E-02
   0.135236E-02
   0.997556E-03
   0.997556E-03
   0.997556E-03
   0.997556E-03
   0.384549E-03
   0.384549E-03
   0.384549E-03
   0.384549E-03
   0.552880E-03
   0.552880E-03
   0.552880E-03
   0.321349E-06
   0.321349E-06
   0.321349E-06
   0.985928E-03
   0.985928E-03
   0.985928E-03
   0.985928E-03
   0.164047E-02
   0.164047E-02
   0.164047E-02
   0.137293E-02
   0.137293E-02
   0.137293E-02
   0.615343E-03
   0.615343E-03
   0.615343E-03
   0.770244E-03
   0.770244E-03
   0.770244E-03
   0.770244E-03
   0.543758E-03
   0.543758E-03
   0.543758E-03
   0.648145E-03
   0.648145E-03
   0.648145E-03
   0.235580E-03
   0.235580E-03
   0.235580E-03
   0.428214E-03
   0.428214E-03
   0.428214E-03
   0.436850E-03
   0.436850E-03
   0.436850E-03
   0.436850E-03
   0.316337E-03
   0.316337E-03
   0.316337E-03
   0.588956E-03
   0.588956E-03
   0.588956E-03
   0.588956E-03
   0.118575E-02
   0.118575E-02
   0.118575E-02
   0.118575E-02
   0.309741E-03
   0.309741E-03
   0.309741E-03
   0.924905E-04
   0.924905E-04
   0.924905E-04
   0.189719E-02
   0.189719E-02
   0.189719E-02
   0.724249E-03
   0.724249E-03
   0.724249E-03
   0.724249E-03
   0.714606E-03
   0.714606E-03
   0.714606E-03
   0.714606E-03
   0.314986E-03
   0.314986E-03
   0.314986E-03
   0.872523E-03
   0.872523E-03
   0.872523E-03
   0.872523E-03
   0.905669E-04
   0.905669E-04
   0.905669E-04
   0.256497E-03
   0.256497E-03
   0.256497E-03
   0.424811E-03
   0.424811E-03
   0.424811E-03
   0.424811E-03
   0.588428E-03
   0.588428E-03
   0.588428E-03
   0.545883E-03
   0.545883E-03
   0.545883E-03
   0.180880E-05
   0.180880E-05
   0.180880E-05
   0.126993E-06
   0.126993E-06
   0.126993E-06
   0.421168E-03
   0.421168E-03
   0.421168E-03
   0.313600E-05
   0.313600E-05
   0.313600E-05
   0.127570E-02
   0.127570E-02
   0.127570E-02
   0.921675E-03
   0.921675E-03
   0.921675E-03
   0.921675E-03
   0.189095E-02
   0.189095E-02
   0.189095E-02
   0.106051E-02
   0.106051E-02
   0.106051E-02
   0.786227E-03
   0.786227E-03
   0.786227E-03
   0.786227E-03
   0.588823E-03
   0.588823E-03
   0.588823E-03
   0.588823E-03
   0.675135E-06
   0.675135E-06
   0.675135E-06
   0.476528E-03
   0.476528E-03
   0.476528E-03
   0.336438E-03
   0.336438E-03
   0.336438E-03
   0.450453E-03
   0.450453E-03
   0.450453E-03
   0.450453E-03
   0.116027E-02
   0.116027E-02
   0.116027E-02
   0.116027E-02
   0.133691E-02
   0.133691E-02
   0.133691E-02
   0.953705E-03
   0.953705E-03
   0.953705E-03
   0.953705E-03
   0.762194E-03
   0.762194E-03
   0.762194E-03
   0.762194E-03
   0.617084E-03
   0.617084E-03
   0.617084E-03
   0.646155E-03
   0.646155E-03
   0.646155E-03
   0.433810E-03
   0.433810E-03
   0.433810E-03
   0.433810E-03
   0.244149E-03
   0.244149E-03
   0.244149E-03
   0.319952E-03
   0.319952E-03
   0.319952E-03
   0.101818E-03
   0.101818E-03
   0.101818E-03
   0.101818E-03
   0.180043E-02
   0.180043E-02
   0.180043E-02
   0.927535E-03
   0.927535E-03
   0.927535E-03
   0.927535E-03
   0.106217E-02
   0.106217E-02
   0.106217E-02
   0.993789E-03
   0.993789E-03
   0.993789E-03
   0.993789E-03
   0.163056E-02
   0.163056E-02
   0.163056E-02
   0.134870E-02
   0.134870E-02
   0.134870E-02
   0.442130E-05
   0.442130E-05
   0.442130E-05
   0.481344E-03
   0.481344E-03
   0.481344E-03
   0.575821E-03
   0.575821E-03
   0.575821E-03
   0.575821E-03
   0.569520E-03
   0.569520E-03
   0.569520E-03
   0.569520E-03
   0.566545E-06
   0.566545E-06
   0.566545E-06
   0.451937E-05
   0.451937E-05
   0.451937E-05
   0.412680E-03
   0.412680E-03
   0.412680E-03
   0.412680E-03
   0.411157E-03
   0.411157E-03
   0.411157E-03
   0.411157E-03
   0.119396E-03
   0.119396E-03
   0.119396E-03
   0.113656E-02
   0.113656E-02
   0.113656E-02
   0.113656E-02
   0.181579E-03
   0.181579E-03
   0.181579E-03
   0.181579E-03
   0.334218E-03
   0.334218E-03
   0.334218E-03
   0.334218E-03
   0.393132E-03
   0.393132E-03
   0.393132E-03
   0.393132E-03
   0.363975E-03
   0.363975E-03
   0.363975E-03
   0.118811E-02
   0.118811E-02
   0.118811E-02
   0.118811E-02
   0.942817E-04
   0.942817E-04
   0.942817E-04
   0.942817E-04
   0.423981E-05
   0.423981E-05
   0.423981E-05
   0.937996E-03
   0.937996E-03
   0.937996E-03
   0.937996E-03
   0.163817E-02
   0.163817E-02
   0.163817E-02
   0.111626E-02
   0.111626E-02
   0.111626E-02
   0.111626E-02
   0.728849E-03
   0.728849E-03
   0.728849E-03
   0.728849E-03
   0.198224E-02
   0.198224E-02
   0.198224E-02
   0.718022E-03
   0.718022E-03
   0.718022E-03
   0.718022E-03
   0.427633E-03
   0.427633E-03
   0.427633E-03
   0.427633E-03
   0.398946E-03
   0.398946E-03
   0.398946E-03
   0.426636E-03
   0.426636E-03
   0.426636E-03
   0.426636E-03
   0.874955E-03
   0.874955E-03
   0.874955E-03
   0.874955E-03
   0.310530E-03
   0.310530E-03
   0.310530E-03
   0.919516E-04
   0.919516E-04
   0.919516E-04
   0.426156E-03
   0.426156E-03
   0.426156E-03
   0.426156E-03
   0.257643E-03
   0.257643E-03
   0.257643E-03
   0.586047E-03
   0.586047E-03
   0.586047E-03
   0.111393E-02
   0.111393E-02
   0.111393E-02
   0.111393E-02
   0.133944E-02
   0.133944E-02
   0.133944E-02
   0.936742E-03
   0.936742E-03
   0.936742E-03
   0.936742E-03
   0.898026E-06
   0.898026E-06
   0.898026E-06
   0.426665E-03
   0.426665E-03
   0.426665E-03
   0.426665E-03
   0.455101E-03
   0.455101E-03
   0.455101E-03
   0.455101E-03
   0.113431E-02
   0.113431E-02
   0.113431E-02
   0.113431E-02
   0.115664E-03
   0.115664E-03
   0.115664E-03
   0.181148E-03
   0.181148E-03
   0.181148E-03
   0.181148E-03
   0.396726E-03
   0.396726E-03
   0.396726E-03
   0.396726E-03
   0.342937E-03
   0.342937E-03
   0.342937E-03
   0.342937E-03
   0.359928E-03
   0.359928E-03
   0.359928E-03
   0.141220E-03
   0.141220E-03
   0.141220E-03
   0.141220E-03
   0.141371E-03
   0.141371E-03
   0.141371E-03
   0.141371E-03
   0.372017E-05
   0.372017E-05
   0.372017E-05
   0.470753E-05
   0.470753E-05
   0.470753E-05
   0.754081E-03
   0.754081E-03
   0.754081E-03
   0.754081E-03
   0.760502E-03
   0.760502E-03
   0.760502E-03
   0.760502E-03
   0.180671E-02
   0.180671E-02
   0.180671E-02
   0.708735E-03
   0.708735E-03
   0.708735E-03
   0.708735E-03
   0.714660E-03
   0.714660E-03
   0.714660E-03
   0.714660E-03
   0.658433E-05
   0.658433E-05
   0.658433E-05
   0.135204E-02
   0.135204E-02
   0.135204E-02
   0.128587E-02
   0.128587E-02
   0.128587E-02
   0.996497E-03
   0.996497E-03
   0.996497E-03
   0.996497E-03
   0.255121E-03
   0.255121E-03
   0.255121E-03
   0.338773E-03
   0.338773E-03
   0.338773E-03
   0.103012E-02
   0.103012E-02
   0.103012E-02
   0.174352E-02
   0.174352E-02
   0.174352E-02
   0.949303E-03
   0.949303E-03
   0.949303E-03
   0.949303E-03
   0.775085E-03
   0.775085E-03
   0.775085E-03
   0.775085E-03
   0.100184E-02
   0.100184E-02
   0.100184E-02
   0.100953E-02
   0.100953E-02
   0.100953E-02
   0.955837E-03
   0.955837E-03
   0.955837E-03
   0.955837E-03
   0.164043E-02
   0.164043E-02
   0.164043E-02
   0.116349E-02
   0.116349E-02
   0.116349E-02
   0.116349E-02
   0.189109E-02
   0.189109E-02
   0.189109E-02
   0.920284E-03
   0.920284E-03
   0.920284E-03
   0.920284E-03
   0.105703E-02
   0.105703E-02
   0.105703E-02
   0.144566E-05
   0.144566E-05
   0.144566E-05
   0.777901E-03
   0.777901E-03
   0.777901E-03
   0.777901E-03
   0.426310E-03
   0.426310E-03
   0.426310E-03
   0.426310E-03
   0.341359E-03
   0.341359E-03
   0.341359E-03
   0.478319E-03
   0.478319E-03
   0.478319E-03
   0.452088E-03
   0.452088E-03
   0.452088E-03
   0.452088E-03
   0.127752E-02
   0.127752E-02
   0.127752E-02
   0.176526E-05
   0.176526E-05
   0.176526E-05
   0.673035E-03
   0.673035E-03
   0.673035E-03
   0.673035E-03
   0.175124E-02
   0.175124E-02
   0.175124E-02
   0.676311E-03
   0.676311E-03
   0.676311E-03
   0.676311E-03
   0.583772E-05
   0.583772E-05
   0.583772E-05
   0.111764E-05
   0.111764E-05
   0.111764E-05
   0.994606E-03
   0.994606E-03
   0.994606E-03
   0.781885E-03
   0.781885E-03
   0.781885E-03
   0.781885E-03
   0.781893E-03
   0.781893E-03
   0.781893E-03
   0.781893E-03
   0.198226E-02
   0.198226E-02
   0.198226E-02
   0.725387E-03
   0.725387E-03
   0.725387E-03
   0.725387E-03
   0.711824E-03
   0.711824E-03
   0.711824E-03
   0.711824E-03
   0.396910E-03
   0.396910E-03
   0.396910E-03
   0.429065E-03
   0.429065E-03
   0.429065E-03
   0.429065E-03
   0.425789E-03
   0.425789E-03
   0.425789E-03
   0.425789E-03
   0.244989E-03
   0.244989E-03
   0.244989E-03
   0.587831E-03
   0.587831E-03
   0.587831E-03
   0.427832E-03
   0.427832E-03
   0.427832E-03
   0.427832E-03
   0.337240E-03
   0.337240E-03
   0.337240E-03
   0.337240E-03
   0.396803E-03
   0.396803E-03
   0.396803E-03
   0.102247E-02
   0.102247E-02
   0.102247E-02
   0.940384E-03
   0.940384E-03
   0.940384E-03
   0.940384E-03
   0.100670E-02
   0.100670E-02
   0.100670E-02
   0.773766E-03
   0.773766E-03
   0.773766E-03
   0.773766E-03
   0.131353E-02
   0.131353E-02
   0.131353E-02
   0.137413E-02
   0.137413E-02
   0.137413E-02
   0.990056E-03
   0.990056E-03
   0.990056E-03
   0.990056E-03
   0.802851E-06
   0.802851E-06
   0.802851E-06
   0.782239E-03
   0.782239E-03
   0.782239E-03
   0.782239E-03
   0.100629E-02
   0.100629E-02
   0.100629E-02
   0.163135E-02
   0.163135E-02
   0.163135E-02
   0.134900E-02
   0.134900E-02
   0.134900E-02
   0.993768E-03
   0.993768E-03
   0.993768E-03
   0.993768E-03
   0.482707E-03
   0.482707E-03
   0.482707E-03
   0.444865E-05
   0.444865E-05
   0.444865E-05
   0.130891E-02
   0.130891E-02
   0.130891E-02
   0.121355E-05
   0.121355E-05
   0.121355E-05
   0.881298E-05
   0.881298E-05
   0.881298E-05
   0.849819E-05
   0.849819E-05
   0.849819E-05
   0.417861E-03
   0.417861E-03
   0.417861E-03
   0.321677E-03
   0.321677E-03
   0.321677E-03
   0.433197E-03
   0.433197E-03
   0.433197E-03
   0.433197E-03
   0.753961E-03
   0.753961E-03
   0.753961E-03
   0.753961E-03
   0.365069E-03
   0.365069E-03
   0.365069E-03
   0.998545E-03
   0.998545E-03
   0.998545E-03
   0.134253E-02
   0.134253E-02
   0.134253E-02
   0.942146E-03
   0.942146E-03
   0.942146E-03
   0.942146E-03
   0.111212E-02
   0.111212E-02
   0.111212E-02
   0.111212E-02
   0.456902E-03
   0.456902E-03
   0.456902E-03
   0.456902E-03
   0.428556E-03
   0.428556E-03
   0.428556E-03
   0.428556E-03
   0.297071E-06
   0.297071E-06
   0.297071E-06
   0.412836E-03
   0.412836E-03
   0.412836E-03
   0.412836E-03
   0.395294E-03
   0.395294E-03
   0.395294E-03
   0.395294E-03
   0.984725E-03
   0.984725E-03
   0.984725E-03
   0.984725E-03
   0.163790E-02
   0.163790E-02
   0.163790E-02
   0.137293E-02
   0.137293E-02
   0.137293E-02
   0.246077E-05
   0.246077E-05
   0.246077E-05
   0.100513E-02
   0.100513E-02
   0.100513E-02
   0.795014E-03
   0.795014E-03
   0.795014E-03
   0.795014E-03
   0.116394E-02
   0.116394E-02
   0.116394E-02
   0.116394E-02
   0.957684E-03
   0.957684E-03
   0.957684E-03
   0.957684E-03
   0.423732E-03
   0.423732E-03
   0.423732E-03
   0.423732E-03
   0.773682E-03
   0.773682E-03
   0.773682E-03
   0.773682E-03
   0.258334E-03
   0.258334E-03
   0.258334E-03
   0.344941E-03
   0.344941E-03
   0.344941E-03
   0.254329E-05
   0.254329E-05
   0.254329E-05
   0.406990E-03
   0.406990E-03
   0.406990E-03
   0.411451E-05
   0.411451E-05
   0.411451E-05
   0.998966E-03
   0.998966E-03
   0.998966E-03
   0.346220E-05
   0.346220E-05
   0.346220E-05
   0.422872E-03
   0.422872E-03
   0.422872E-03
   0.422872E-03
   0.416707E-03
   0.416707E-03
   0.416707E-03
   0.416707E-03
   0.756735E-03
   0.756735E-03
   0.756735E-03
   0.756735E-03
   0.392784E-03
   0.392784E-03
   0.392784E-03
   0.392784E-03
   0.249798E-03
   0.249798E-03
   0.249798E-03
   0.430187E-03
   0.430187E-03
   0.430187E-03
   0.430187E-03
   0.585541E-03
   0.585541E-03
   0.585541E-03
   0.340630E-03
   0.340630E-03
   0.340630E-03
   0.340630E-03
   0.400726E-03
   0.400726E-03
   0.400726E-03
   0.322489E-03
   0.322489E-03
   0.322489E-03
   0.362325E-03
   0.362325E-03
   0.362325E-03

SCALARS  vx_core_radius  double
LOOKUP_TABLE default
   0.000000E+00
   0.000000E+00
   0.000000E+00
   0.000000E+00
   0.000000E+00
   0.000000E+00
   0.000000E+00
   0.000000E+00
   0.000000E+00
   0.000000E+00
   0.000000E+00
   0.000000E+00
   0.000000E+00
   0.000000E+00
   0.000000E+00
   0.000000E+00
   0.000000E+00
   0.000000E+00
   0.000000E+00
   0.000000E+00
   0.000000E+00
   0.000000E+00
   0.000000E+00
   0.000000E+00
   0.000000E+00
   0.000000E+00
   0.000000E+00
   0.000000E+00
   0.000000E+00
   0.000000E+00
   0.000000E+00