# vtk DataFile Version 2.0
This file was created by Fortran
ASCII
DATASET UNSTRUCTURED_GRID
POINTS  2100  DOUBLE
  -0.446327E+00   0.232438E+00  -0.326748E+00
  -0.434768E+00   0.117101E+00  -0.396565E+00
  -0.361880E+00   0.117071E+00  -0.464044E+00
  -0.291989E+00   0.229310E+00  -0.471338E+00
  -0.383257E+00   0.325532E+00  -0.327327E+00
  -0.293460E+00   0.322260E+00  -0.412347E+00
  -0.546516E+00   0.216377E+00  -0.120420E+00
  -0.545968E+00   0.116662E+00  -0.219792E+00
  -0.500472E+00   0.117161E+00  -0.309517E+00
  -0.445423E+00   0.323721E+00  -0.238334E+00
  -0.501437E+00   0.306444E+00  -0.121048E+00
  -0.271515E+00   0.113996E+00  -0.522766E+00
  -0.181615E+00   0.113434E+00  -0.560490E+00
  -0.201624E+00   0.317249E+00  -0.467655E+00
  -0.870297E-01   0.294738E+00  -0.515321E+00
  -0.866012E-01   0.207927E+00  -0.556118E+00
  -0.433699E+00   0.397108E+00  -0.119207E+00
  -0.291685E+00   0.413189E+00  -0.322792E+00
  -0.287195E+00   0.473227E+00  -0.231462E+00
  -0.360647E+00   0.464482E+00  -0.119123E+00
  -0.198012E+00   0.469986E+00  -0.316076E+00
  -0.864051E-01   0.385129E+00  -0.451896E+00
  -0.863816E-01   0.452894E+00  -0.383960E+00
  -0.408050E+00   0.545849E-05  -0.439880E+00
  -0.500494E+00  -0.117173E+00  -0.309478E+00
  -0.527797E+00  -0.582542E-05  -0.285361E+00
  -0.434520E+00  -0.117158E+00  -0.396821E+00
  -0.247690E+00   0.392272E-05  -0.546489E+00
  -0.361598E+00  -0.117086E+00  -0.464260E+00
  -0.271438E+00  -0.113980E+00  -0.522810E+00
  -0.583040E+00  -0.100163E+00  -0.100156E+00
  -0.583041E+00   0.100160E+00  -0.100154E+00
  -0.545986E+00  -0.116664E+00  -0.219747E+00
  -0.591805E+00  -0.188190E-05  -0.988302E-01
  -0.647856E-01  -0.155050E-04  -0.590796E+00
  -0.181526E+00  -0.113448E+00  -0.560516E+00
  -0.660197E-01   0.950809E-01  -0.588728E+00
  -0.660111E-01  -0.950888E-01  -0.588728E+00
  -0.268140E+00   0.524490E+00  -0.114065E+00
  -0.833453E-01   0.516110E+00  -0.294422E+00
  -0.178003E+00   0.561654E+00  -0.113400E+00
  -0.829378E-01   0.556774E+00  -0.207662E+00
  -0.408074E+00   0.439858E+00   0.629484E-05
  -0.433702E+00   0.397099E+00   0.119227E+00
  -0.501435E+00   0.306440E+00   0.121069E+00
  -0.527797E+00   0.285359E+00   0.602093E-05
   0.286185E-01   0.420471E+00  -0.420493E+00
   0.286124E-01   0.269968E+00  -0.529685E+00
   0.140327E+00   0.290299E+00  -0.505999E+00
   0.139757E+00   0.378000E+00  -0.444504E+00
  -0.546514E+00   0.216372E+00   0.120438E+00
  -0.583040E+00   0.100160E+00   0.100161E+00
  -0.591804E+00   0.988351E-01   0.287481E-05
   0.284141E-01   0.930100E-01  -0.587139E+00
   0.139665E+00   0.203915E+00  -0.546729E+00
   0.120783E+00   0.947527E-01  -0.580029E+00
  -0.446123E+00  -0.232507E+00  -0.326978E+00
  -0.383003E+00  -0.325570E+00  -0.327586E+00
  -0.291615E+00  -0.229334E+00  -0.471558E+00
  -0.293168E+00  -0.322269E+00  -0.412547E+00
  -0.247731E+00   0.546470E+00   0.529303E-05
  -0.268142E+00   0.524488E+00   0.114073E+00
  -0.360652E+00   0.464474E+00   0.119140E+00
   0.286167E-01   0.529625E+00  -0.269943E+00
   0.139745E+00   0.445468E+00  -0.376869E+00
   0.136967E+00   0.507026E+00  -0.290112E+00
  -0.546526E+00  -0.216379E+00  -0.120372E+00
  -0.501447E+00  -0.306446E+00  -0.121002E+00
  -0.445441E+00  -0.323719E+00  -0.238301E+00
  -0.201538E+00  -0.317258E+00  -0.467685E+00
  -0.865011E-01  -0.207921E+00  -0.556135E+00
  -0.869238E-01  -0.294739E+00  -0.515338E+00
  -0.591803E+00  -0.988382E-01   0.615856E-06
  -0.591804E+00  -0.188751E-05   0.988343E-01
   0.118372E+00  -0.871868E-05  -0.584293E+00
   0.284223E-01  -0.930235E-01  -0.587140E+00
  -0.648045E-01   0.590775E+00   0.462255E-05
  -0.660439E-01   0.588726E+00   0.950792E-01
  -0.178004E+00   0.561652E+00   0.113408E+00
  -0.660487E-01   0.588726E+00  -0.950738E-01
   0.284088E-01   0.587094E+00  -0.930011E-01
   0.136287E+00   0.547637E+00  -0.203764E+00
   0.120785E+00   0.580030E+00  -0.947431E-01
  -0.583040E+00  -0.100163E+00   0.100159E+00
  -0.546526E+00  -0.216378E+00   0.120373E+00
  -0.527797E+00  -0.285360E+00   0.241068E-06
   0.120791E+00  -0.947466E-01  -0.580028E+00
   0.286351E-01  -0.269960E+00  -0.529681E+00
   0.139639E+00  -0.203910E+00  -0.546737E+00
  -0.445901E+00   0.232460E+00   0.327314E+00
  -0.500465E+00   0.117159E+00   0.309530E+00
  -0.545963E+00   0.116656E+00   0.219808E+00
  -0.445422E+00   0.323705E+00   0.238358E+00
   0.247043E+00   0.303965E+00  -0.448266E+00
   0.230440E+00   0.109539E+00  -0.543046E+00
   0.311832E+00   0.109930E+00  -0.500676E+00
   0.327009E+00   0.217746E+00  -0.448386E+00
  -0.433703E+00  -0.397099E+00  -0.119223E+00
  -0.360652E+00  -0.464474E+00  -0.119138E+00
  -0.291686E+00  -0.413179E+00  -0.322804E+00
  -0.287202E+00  -0.473215E+00  -0.231478E+00
  -0.198016E+00  -0.469983E+00  -0.316079E+00
  -0.863909E-01  -0.385131E+00  -0.451896E+00
  -0.863832E-01  -0.452893E+00  -0.383960E+00
  -0.291684E+00   0.413181E+00   0.322803E+00
  -0.382788E+00   0.325541E+00   0.327866E+00
  -0.287200E+00   0.473217E+00   0.231478E+00
   0.243845E+00   0.450769E+00  -0.302981E+00
   0.330801E+00   0.308754E+00  -0.394007E+00
   0.329250E+00   0.394862E+00  -0.309319E+00
  -0.545985E+00  -0.116664E+00   0.219751E+00
  -0.527794E+00  -0.125371E-05   0.285365E+00
   0.287932E+00   0.774614E-05  -0.522951E+00
   0.230411E+00  -0.109537E+00  -0.543058E+00
   0.118370E+00   0.584264E+00   0.214383E-05
   0.284137E-01   0.587091E+00   0.930043E-01
  -0.833459E-01   0.516107E+00   0.294427E+00
  -0.198010E+00   0.469986E+00   0.316078E+00
  -0.829347E-01   0.556773E+00   0.207666E+00
  -0.501447E+00  -0.306446E+00   0.121003E+00
  -0.433703E+00  -0.397099E+00   0.119223E+00
  -0.408076E+00  -0.439856E+00   0.122677E-06
   0.227166E+00   0.544414E+00  -0.109584E+00
   0.322577E+00   0.449998E+00  -0.219698E+00
   0.308834E+00   0.502499E+00  -0.110074E+00
   0.140308E+00  -0.290301E+00  -0.506003E+00
   0.286307E-01  -0.420468E+00  -0.420488E+00
   0.139780E+00  -0.377999E+00  -0.444498E+00
  -0.500493E+00  -0.117168E+00   0.309481E+00
  -0.446123E+00  -0.232511E+00   0.326976E+00
  -0.445442E+00  -0.323719E+00   0.238301E+00
   0.311809E+00  -0.109915E+00  -0.500693E+00
   0.247012E+00  -0.303958E+00  -0.448251E+00
   0.326765E+00  -0.217784E+00  -0.448591E+00
  -0.268146E+00  -0.524486E+00  -0.114071E+00
  -0.178010E+00  -0.561651E+00  -0.113405E+00
  -0.833522E-01  -0.516106E+00  -0.294427E+00
  -0.829458E-01  -0.556771E+00  -0.207667E+00
   0.120790E+00   0.580029E+00   0.947433E-01
   0.286220E-01   0.529624E+00   0.269945E+00
   0.136297E+00   0.547635E+00   0.203763E+00
   0.287941E+00   0.522900E+00  -0.320213E-05
   0.227170E+00   0.544413E+00   0.109583E+00
  -0.434519E+00  -0.117158E+00   0.396821E+00
  -0.434288E+00   0.117096E+00   0.397092E+00
  -0.408056E+00  -0.930443E-06   0.439875E+00
   0.429421E+00   0.179311E-04  -0.413830E+00
   0.392292E+00   0.110917E+00  -0.440232E+00
   0.392065E+00  -0.110941E+00  -0.440428E+00
  -0.291383E+00   0.229247E+00   0.471743E+00
  -0.361334E+00   0.117028E+00   0.464480E+00
  -0.292904E+00   0.322203E+00   0.412786E+00
   0.410895E+00   0.308286E+00  -0.310040E+00
   0.455665E+00   0.111030E+00  -0.374222E+00
   0.461260E+00   0.217533E+00  -0.306230E+00
  -0.360652E+00  -0.464474E+00   0.119137E+00
  -0.268143E+00  -0.524488E+00   0.114071E+00
  -0.247735E+00  -0.546468E+00   0.140160E-05
   0.139751E+00  -0.445468E+00  -0.376866E+00
   0.286112E-01  -0.529624E+00  -0.269945E+00
   0.136960E+00  -0.507027E+00  -0.290113E+00
  -0.863905E-01   0.385132E+00   0.451896E+00
  -0.201587E+00   0.317253E+00   0.467667E+00
  -0.863774E-01   0.452895E+00   0.383960E+00
   0.391291E+00   0.440620E+00  -0.112895E+00
   0.460027E+00   0.302981E+00  -0.222827E+00
   0.454825E+00   0.374644E+00  -0.113031E+00
  -0.383003E+00  -0.325575E+00   0.327582E+00
  -0.291683E+00  -0.413181E+00   0.322804E+00
  -0.287200E+00  -0.473218E+00   0.231477E+00
   0.330573E+00  -0.308771E+00  -0.394185E+00
   0.243847E+00  -0.450769E+00  -0.302975E+00
   0.329259E+00  -0.394865E+00  -0.309306E+00
   0.136971E+00   0.507024E+00   0.290113E+00
   0.286312E-01   0.420468E+00   0.420489E+00
   0.139752E+00   0.445467E+00   0.376867E+00
   0.429474E+00   0.413752E+00  -0.817882E-05
   0.391296E+00   0.440619E+00   0.112882E+00
   0.308839E+00   0.502498E+00   0.110066E+00
  -0.361605E+00  -0.117102E+00   0.464251E+00
  -0.291610E+00  -0.229346E+00   0.471555E+00
  -0.293164E+00  -0.322274E+00   0.412546E+00
   0.455470E+00  -0.111056E+00  -0.374451E+00
   0.410693E+00  -0.308340E+00  -0.310255E+00
   0.461063E+00  -0.217577E+00  -0.306377E+00
  -0.271442E+00  -0.113998E+00   0.522804E+00
  -0.271493E+00   0.113989E+00   0.522779E+00
  -0.247707E+00  -0.405973E-05   0.546481E+00
   0.531349E+00   0.165634E-04  -0.265989E+00
   0.513015E+00   0.110128E+00  -0.291012E+00
   0.513049E+00  -0.110111E+00  -0.290957E+00
  -0.178006E+00  -0.561652E+00   0.113407E+00
  -0.660479E-01  -0.588726E+00   0.950780E-01
  -0.660542E-01  -0.588725E+00  -0.950759E-01
  -0.648092E-01  -0.590775E+00   0.315385E-05
   0.136279E+00  -0.547639E+00  -0.203765E+00
   0.284030E-01  -0.587093E+00  -0.930020E-01
   0.120778E+00  -0.580031E+00  -0.947435E-01
   0.243855E+00   0.450764E+00   0.302974E+00
   0.322587E+00   0.449994E+00   0.219690E+00
  -0.865627E-01   0.207920E+00   0.556126E+00
  -0.181589E+00   0.113439E+00   0.560497E+00
  -0.869838E-01   0.294737E+00   0.515329E+00
   0.513923E+00   0.287986E+00  -0.113783E+00
   0.552448E+00   0.109894E+00  -0.206698E+00
   0.552952E+00   0.203399E+00  -0.113457E+00
   0.139778E+00   0.377998E+00   0.444499E+00
   0.286288E-01   0.269956E+00   0.529680E+00
   0.140355E+00   0.290294E+00   0.505994E+00
  -0.198009E+00  -0.469985E+00   0.316080E+00
[...]
POINT_DATA  2100
SCALARS  vx_strength  double
LOOKUP_TABLE default
   0.209492E-02
   0.264362E-02
   0.482548E-02
   0.785556E-04
   0.345190E-02
   0.160309E-02
   0.177170E-02
   0.175378E-02
   0.309173E-02
   0.208571E-02
   0.333832E-02
   0.732360E-03
   0.537563E-02
   0.552348E-02
   0.300006E-02
   0.264933E-02
   0.267462E-02
   0.168674E-02
   0.240389E-03
   0.474453E-02
   0.541862E-02
   0.223022E-02
   0.226852E-02
   0.692290E-04
   0.321430E-02
   0.145760E-04
   0.263973E-02
   0.391149E-04
   0.457573E-02
   0.949890E-03
   0.167084E-02
   0.165074E-02
   0.172094E-02
   0.227799E-05
   0.454382E-04
   0.545235E-02
   0.235167E-02
   0.243089E-02
   0.809144E-03
   0.312544E-02
   0.566070E-02
   0.301931E-02
   0.676744E-05
   0.267520E-02
   0.333736E-02
   0.701400E-05
   0.462961E-02
   0.531137E-02
   0.620603E-02
   0.550804E-02
   0.177546E-02
   0.167055E-02
   0.101699E-04
   0.455754E-02
   0.527931E-02
   0.542819E-02
   0.205993E-02
   0.344572E-02
   0.689004E-04
   0.139579E-02
   0.238440E-04
   0.846492E-03
   0.473130E-02
   0.557825E-02
   0.545896E-02
   0.628298E-02
   0.177785E-02
   0.332042E-02
   0.212006E-02
   0.573026E-02
   0.280548E-02
   0.310595E-02
   0.997348E-06
   0.689456E-05
   0.342627E-04
   0.454637E-02
   0.103965E-05
   0.280308E-02
   0.562870E-02
   0.280508E-02
   0.462552E-02
   0.531831E-02
   0.544303E-02
   0.166829E-02
   0.177542E-02
   0.476307E-05
   0.549115E-02
   0.535554E-02
   0.531622E-02
   0.205755E-02
   0.323568E-02
   0.172955E-02
   0.212839E-02
   0.162570E-02
   0.145861E-02
   0.279183E-02
   0.230414E-02
   0.267850E-02
   0.474283E-02
   0.167579E-02
   0.254458E-03
   0.541285E-02
   0.228336E-02
   0.227172E-02
   0.167862E-02
   0.342553E-02
   0.255196E-03
   0.184429E-02
   0.346424E-02
   0.365542E-02
   0.173007E-02
   0.582841E-05
   0.225357E-04
   0.149932E-02
   0.378695E-04
   0.466443E-02
   0.317439E-02
   0.542744E-02
   0.303809E-02
   0.333625E-02
   0.267635E-02
   0.489006E-05
   0.151973E-02
   0.253293E-02
   0.283002E-02
   0.622555E-02
   0.462892E-02
   0.551688E-02
   0.320582E-02
   0.206869E-02
   0.211989E-02
   0.281435E-02
   0.163281E-02
   0.230322E-02
   0.812352E-03
   0.565258E-02
   0.314583E-02
   0.302309E-02
   0.550879E-02
   0.561324E-02
   0.535027E-02
   0.108833E-04
   0.154416E-02
   0.259356E-02
   0.257484E-02
   0.106037E-05
   0.255907E-05
   0.266546E-02
   0.266874E-02
   0.826558E-04
   0.461279E-02
   0.142414E-02
   0.241012E-02
   0.246534E-02
   0.164542E-02
   0.472988E-02
   0.845684E-03
   0.192595E-04
   0.545017E-02
   0.558981E-02
   0.627356E-02
   0.228504E-02
   0.571444E-02
   0.228137E-02
   0.278822E-02
   0.175823E-02
   0.256781E-02
   0.342958E-02
   0.167037E-02
   0.248313E-03
   0.347035E-02
   0.181564E-02
   0.364414E-02
   0.629512E-02
   0.462794E-02
   0.545630E-02
   0.232744E-06
   0.278707E-02
   0.284652E-02
   0.461211E-02
   0.934200E-04
   0.142072E-02
   0.247540E-02
   0.241639E-02
   0.165302E-02
   0.930942E-03
   0.899921E-03
   0.157159E-04
   0.659615E-05
   0.370111E-02
   0.370780E-02
   0.563062E-02
   0.280454E-02
   0.280202E-02
   0.616902E-06
   0.532599E-02
   0.462442E-02
   0.544157E-02
   0.183880E-02
   0.253796E-02
   0.277846E-02
   0.547744E-02
   0.309714E-02
   0.378828E-02
   0.236140E-02
   0.240254E-02
   0.551188E-02
   0.533344E-02
   0.620481E-02
   0.543662E-02
   0.318571E-02
   0.304682E-02
   0.221909E-05
   0.379060E-02
   0.256825E-02
   0.252548E-02
   0.151493E-02
   0.283243E-02
   0.466165E-02
   0.366161E-04
   0.241159E-02
   0.547345E-02
   0.241192E-02
   0.130950E-04
   0.157296E-05
   0.234738E-02
   0.232957E-02
   0.233390E-02
   0.572594E-02
   0.227561E-02
   0.226572E-02
   0.175533E-02
   0.278801E-02
   0.256547E-02
   0.162376E-02
   0.366740E-02
   0.347422E-02
   0.240269E-02
   0.175844E-02
   0.279022E-02
   0.311038E-02
   0.239685E-02
   0.378749E-02
   0.451885E-02
   0.529635E-02
   0.544589E-02
   0.172386E-05
   0.232584E-02
   0.240094E-02
   0.561417E-02
   0.534370E-02
   0.550463E-02
   0.153705E-02
   0.965926E-05
   0.453370E-02
   0.279484E-04
   0.621962E-05
   0.637053E-05
   0.148482E-02
   0.230820E-02
   0.280856E-02
   0.366912E-02
   0.165893E-02
   0.237586E-02
   0.462132E-02
   0.544963E-02
   0.627076E-02
   0.284769E-02
   0.278965E-02
   0.269548E-05
   0.267235E-02
   0.247221E-02
   0.549938E-02
   0.536003E-02
   0.534306E-02
   0.109273E-04
   0.243598E-02
   0.231424E-02
   0.622846E-02
   0.551558E-02
   0.255061E-02
   0.378421E-02
   0.181021E-02
   0.253075E-02
   0.228800E-04
   0.152537E-02
   0.149142E-04
   0.241188E-02
   0.821626E-05
   0.281689E-02
   0.270359E-02
   0.367164E-02
   0.244446E-02
   0.163349E-02
   0.348371E-02
   0.364962E-02
   0.239127E-02
   0.176641E-02
   0.230381E-02
   0.166693E-02
   0.200124E-02
   0.279492E-02
   0.494785E-02
   0.411947E-04
   0.389156E-02
   0.150224E-02
   0.183459E-02
   0.177470E-02
   0.321098E-02
   0.201640E-02
   0.338098E-02
   0.756245E-03
   0.571424E-02
   0.581144E-02
   0.237459E-02
   0.218301E-02
   0.279895E-02
   0.164828E-02
   0.230900E-03
   0.495906E-02
   0.562823E-02
   0.151235E-02
   0.152716E-02
   0.645285E-05
   0.326379E-02
   0.180588E-04
   0.273443E-02
   0.178968E-03
   0.478731E-02
   0.115484E-02
   0.172835E-02
   0.172250E-02
   0.179189E-02
   0.301563E-06
   0.363546E-04
   0.554699E-02
   0.189895E-02
   0.190796E-02
   0.100797E-02
   0.241040E-02
   0.573817E-02
   0.242381E-02
   0.405158E-05
   0.279058E-02
   0.337349E-02
   0.764610E-05
   0.364938E-02
   0.440171E-02
   0.518068E-02
   0.458436E-02
   0.183730E-02
   0.174223E-02
   0.864804E-05
   0.397327E-02
   0.440544E-02
   0.484238E-02
   0.194538E-02
   0.387514E-02
   0.577426E-04
   0.139295E-02
   0.298799E-04
   0.105691E-02
   0.495687E-02
   0.460668E-02
   0.456945E-02
   0.529952E-02
   0.183537E-02
   0.335868E-02
   0.202587E-02
   0.597090E-02
   0.229017E-02
   0.249234E-02
   0.304401E-05
   0.530247E-05
   0.152436E-04
   0.395216E-02
   0.310603E-04
   0.222231E-02
   0.567237E-02
   0.229955E-02
   0.410279E-02
   0.448733E-02
   0.493663E-02
   0.173719E-02
   0.183211E-02
   0.689037E-06
   0.488433E-02
   0.445768E-02
   0.443738E-02
   0.194563E-02
   0.329202E-02
   0.179197E-02
   0.203293E-02
   0.737005E-03
   0.578281E-03
   0.245502E-02
   0.199429E-02
   0.279716E-02
   0.495983E-02
   0.168665E-02
   0.257698E-03
   0.561337E-02
   0.157934E-02
   0.154023E-02
   0.168699E-02
   0.385665E-02
   0.251242E-03
   0.100713E-02
   0.318515E-02
   0.340601E-02
   0.179531E-02
   0.455671E-05
   0.298736E-04
   0.632924E-03
   0.128159E-04
   0.408454E-02
   0.244003E-02
   0.562539E-02
   0.240856E-02
   0.337244E-02
   0.278717E-02
   0.291610E-05
   0.713128E-03
   0.228568E-02
   0.259563E-02
   0.519976E-02
   0.366908E-02
   0.460077E-02
   0.325949E-02
   0.195467E-02
   0.202687E-02
   0.250494E-02
   0.738457E-03
   0.199452E-02
   0.101688E-02
   0.573079E-02
   0.242003E-02
   0.241990E-02
   0.497337E-02
   0.463119E-02
   0.451930E-02
   0.135875E-04
   0.746041E-03
   0.271503E-02
   0.269225E-02
   0.112738E-05
   0.556756E-05
   0.326973E-02
   0.325197E-02
   0.718161E-04
   0.480777E-02
   0.142354E-02
   0.306956E-02
   0.245974E-02
   0.151894E-02
   0.495658E-02
   0.105732E-02
   0.298516E-04
   0.457428E-02
   0.462248E-02
   0.530331E-02
   0.158342E-02
   0.595145E-02
   0.154862E-02
   0.333211E-02
   0.160937E-02
   0.255121E-02
   0.385948E-02
   0.168228E-02
   0.252441E-03
   0.317922E-02
   0.987203E-03
   0.339270E-02
   0.531035E-02
   0.366737E-02
   0.457803E-02
   0.248528E-05
   0.332198E-02
   0.262150E-02
   0.481172E-02
   0.767992E-04
   0.142510E-02
   0.247982E-02
   0.306985E-02
   0.153366E-02
   0.113124E-02
   0.109624E-02
   0.218962E-04
   0.382150E-05
   0.379791E-02
   0.379444E-02
   0.567763E-02
   0.222877E-02
   0.229040E-02
   0.302498E-04
   0.450314E-02
   0.410325E-02
   0.493803E-02
   0.100766E-02
   0.229764E-02
   0.229148E-02
   0.559572E-02
   0.249294E-02
   0.391698E-02
   0.226583E-02
   0.229904E-02
   0.459688E-02
   0.444549E-02
   0.518764E-02
   0.563634E-02
   0.246276E-02
   0.242113E-02
   0.539195E-06
   0.391091E-02
   0.255947E-02
   0.227556E-02
   0.712536E-03
   0.259287E-02
   0.408804E-02
   0.150366E-04
   0.189702E-02
   0.557589E-02
   0.192559E-02
   0.265651E-04
   0.748568E-06
   0.225762E-02
   0.226441E-02
   0.226925E-02
   0.596130E-02
   0.157577E-02
   0.153735E-02
   0.161239E-02
   0.333226E-02
   0.254962E-02
   0.732349E-03
   0.342101E-02
   0.319079E-02
   0.305965E-02
   0.161500E-02
   0.229966E-02
   0.250679E-02
   0.229383E-02
   0.391415E-02
   0.394439E-02
   0.442701E-02
   0.485912E-02
   0.179154E-05
   0.225761E-02
   0.230357E-02
   0.464863E-02
   0.453181E-02
   0.497623E-02
   0.743499E-03
   0.131517E-04
   0.392418E-02
   0.635208E-05
   0.328370E-05
   0.743589E-06
   0.616080E-03
   0.200031E-02
   0.249323E-02
   0.375548E-02
   0.153415E-02
   0.229236E-02
   0.366452E-02
   0.458014E-02
   0.530591E-02
   0.261584E-02
   0.332654E-02
   0.804849E-06
   0.326208E-02
   0.247399E-02
   0.488396E-02
   0.446656E-02
   0.446395E-02
   0.132715E-04
   0.235229E-02
   0.221806E-02
   0.520803E-02
   0.460796E-02
   0.253954E-02
   0.390739E-02
   0.983895E-03
   0.228678E-02
   0.329805E-04
   0.670414E-03
   0.210735E-05
   0.232850E-02
   0.105150E-05
   0.253996E-02
   0.325998E-02
   0.377228E-02
   0.245847E-02
   0.739301E-03
   0.318977E-02
   0.339960E-02
   0.304873E-02
   0.162243E-02
   0.200688E-02
   0.154372E-02
   0.195811E-02
   0.285675E-02
   0.507250E-02
   0.157681E-03
   0.440488E-02
   0.990790E-03
   0.191616E-02
   0.181935E-02
   0.341149E-02
   0.206163E-02
   0.343708E-02
   0.693393E-03
   0.662049E-02
   0.674555E-02
   0.324139E-02
   0.301845E-02
   0.287530E-02
   0.111404E-02
   0.598722E-04
   0.524064E-02
   0.654866E-02
   0.225187E-02
   0.221711E-02
   0.564614E-04
   0.334042E-02
   0.542756E-04
   0.278645E-02
   0.229317E-03
   0.509110E-02
   0.105785E-02
   0.179837E-02
   0.179334E-02
   0.187620E-02
   0.411090E-05
   0.547652E-04
   0.633151E-02
   0.241691E-02
   0.233180E-02
   0.902981E-03
   0.309860E-02
   0.653808E-02
   0.305843E-02
   0.705706E-06
   0.285748E-02
   0.344233E-02
   0.104961E-04
   0.389836E-02
   0.475596E-02
   0.525721E-02
   0.459109E-02
   0.191783E-02
   0.181756E-02
   0.818333E-05
   0.399845E-02
   0.438288E-02
   0.477036E-02
   0.194537E-02
   0.442818E-02
   0.165789E-03
   0.931199E-03
   0.225001E-04
   0.921316E-03
   0.525173E-02
   0.477988E-02
   0.456636E-02
   0.522753E-02
   0.191891E-02
   0.343982E-02
   0.202691E-02
   0.683075E-02
   0.304984E-02
   0.332474E-02
   0.393820E-05
   0.835604E-05
   0.103450E-04
   0.393334E-02
   0.512486E-04
   0.260899E-02
   0.649052E-02
   0.270378E-02
   0.409461E-02
   0.433161E-02
   0.482924E-02
   0.181060E-02
   0.192026E-02
   0.588898E-05
   0.475873E-02
   0.479183E-02
   0.438763E-02
   0.195133E-02
   0.337184E-02
   0.185866E-02
   0.203894E-02
   0.464728E-03
   0.799638E-05
   0.211290E-02
   0.189861E-02
   0.285984E-02
   0.524881E-02
   0.117157E-02
   0.203590E-04
   0.651512E-02
   0.228549E-02
   0.223152E-02
   0.116710E-02
   0.440993E-02
   0.354328E-04
   0.718496E-03
   0.322866E-02
   0.343754E-02
   0.186177E-02
   0.604219E-05
   0.171572E-04
   0.154914E-04
   0.132856E-04
   0.403007E-02
   0.311395E-02
   0.653045E-02
   0.303392E-02
   0.343958E-02
   0.285593E-02
   0.274233E-05
   0.104334E-03
   0.224721E-02
   0.231730E-02
   0.526621E-02
   0.390955E-02
   0.461474E-02
   0.333956E-02
   0.195948E-02
   0.202641E-02
   0.215804E-02
   0.454871E-03
   0.189633E-02
   0.900164E-03
   0.653227E-02
   0.310004E-02
   0.304494E-02
   0.482042E-02
   0.478395E-02
   0.434933E-02
   0.634008E-05
   0.120514E-03
   0.278703E-02
   0.275982E-02
   0.399155E-05
   0.101403E-04
   0.386461E-02
   0.382860E-02
   0.138376E-03
   0.508379E-02
   0.959233E-03
   0.355790E-02
   0.216138E-02
   0.122247E-02
   0.524958E-02
   0.927647E-03
   0.233246E-04
   0.457768E-02
   0.478651E-02
   0.524682E-02
   0.228336E-02
   0.680926E-02
   0.223803E-02
   0.383612E-02
   0.129644E-02
   0.225810E-02
   0.441670E-02
   0.116941E-02
   0.301230E-04
   0.320020E-02
   0.711770E-03
   0.343034E-02
   0.523228E-02
   0.391068E-02
   0.457540E-02
   0.426284E-05
   0.382005E-02
   0.233701E-02
   0.508716E-02
   0.136143E-03
   0.957615E-03
   0.219105E-02
   0.355901E-02
   0.124548E-02
   0.105057E-02
   0.102261E-02
   0.210614E-04
   0.294008E-07
   0.393109E-02
   0.391821E-02
   0.648748E-02
   0.261098E-02
   0.269781E-02
   0.486515E-04
   0.435516E-02
   0.409256E-02
   0.483465E-02
   0.721222E-03
   0.226360E-02
   0.305417E-02
   0.637489E-02
   0.332420E-02
   0.408061E-02
   0.215780E-02
   0.217181E-02
   0.461194E-02
   0.479223E-02
   0.526382E-02
   0.653423E-02
   0.313052E-02
   0.304130E-02
   0.342318E-05
   0.406526E-02
   0.227359E-02
   0.224196E-02
   0.105263E-03
   0.231281E-02
   0.403225E-02
   0.116618E-04
   0.233419E-02
   0.635764E-02
   0.236053E-02
   0.262938E-04
   0.242573E-05
   0.215525E-02
   0.225996E-02
   0.226599E-02
   0.681322E-02
   0.226949E-02
   0.222909E-02
   0.130278E-02
   0.383861E-02
   0.225904E-02
   0.460949E-03
   0.345365E-02
   0.322622E-02
   0.354847E-02
   0.130618E-02
   0.306637E-02
   0.333709E-02
   0.217070E-02
   0.407781E-02
   0.395972E-02
   0.439082E-02
   0.477061E-02
   0.865152E-06
   0.225031E-02
   0.218368E-02
   0.480500E-02
   0.437469E-02
   0.482966E-02
   0.122052E-03
   0.571931E-05
   0.392561E-02
   0.781455E-05
   0.119703E-04
   0.867947E-05
   0.211945E-04
   0.190799E-02
   0.215906E-02
   0.388022E-02
   0.123829E-02
   0.219479E-02
   0.390499E-02
   0.458229E-02
   0.525031E-02
   0.232813E-02
   0.382680E-02
   0.358609E-05
   0.383637E-02
   0.218535E-02
   0.476078E-02
   0.480184E-02
   0.439733E-02
   0.131912E-04
   0.224553E-02
   0.218429E-02
   0.527398E-02
   0.463041E-02
   0.225598E-02
   0.406760E-02
   0.714315E-03
   0.225671E-02
   0.248544E-04
   0.525788E-04
   0.224317E-04
   0.221438E-02
   0.196833E-04
   0.222297E-02
   0.378006E-02
   0.391821E-02
   0.220779E-02
   0.462023E-03
   0.320392E-02
   0.343942E-02
   0.354723E-02
   0.130698E-02
   0.192500E-02
   0.125409E-02
   0.197711E-02
   0.311679E-02
   0.515177E-02
   0.250666E-03
   0.467925E-02
   0.922675E-03
   0.212818E-02
   0.199880E-02
   0.360547E-02
   0.218679E-02
   0.347558E-02
   0.118905E-02
   0.719031E-02
   0.775432E-02
   0.451075E-02
   0.418247E-02
   0.329783E-02
   0.103996E-02
   0.284599E-03
   0.542926E-02
   0.755856E-02
   0.331056E-02
   0.327175E-02
   0.521101E-04
   0.337503E-02
   0.695245E-04
   0.318511E-02
   0.189235E-03
   0.527402E-02
   0.138492E-02
   0.181138E-02
   0.182365E-02
   0.208427E-02
   0.837300E-05
   0.323472E-04
   0.690450E-02
   0.310730E-02
   0.300120E-02
   0.120788E-02
   0.431235E-02
   0.717293E-02
   0.418706E-02
   0.758885E-05
   0.329976E-02
   0.347278E-02
   0.811854E-05
   0.530365E-02
   0.638327E-02
   0.646037E-02
   0.555948E-02
   0.212740E-02
   0.183680E-02
   0.676227E-06
   0.478368E-02
   0.549843E-02
   0.544329E-02
   0.202674E-02
   0.475164E-02
   0.349419E-03
   0.875002E-03
   0.789235E-05
   0.121051E-02
   0.542715E-02
   0.628504E-02
   0.550728E-02
   0.624390E-02
   0.212831E-02
   0.348503E-02
   0.210658E-02
   0.779080E-02
   0.418953E-02
   0.456120E-02
   0.339645E-05
   0.565277E-05
   0.124562E-04
   0.473887E-02
   0.315866E-04
   0.335400E-02
   0.716245E-02
   0.339913E-02
   0.485684E-02
   0.527284E-02
   0.547422E-02
   0.182852E-02
   0.213190E-02
   0.117361E-04
   0.543109E-02
   0.641121E-02
   0.547165E-02
   0.203419E-02
   0.342248E-02
   0.204685E-02
   0.212678E-02
   0.152058E-02
   0.596393E-03
   0.224861E-02
   0.252772E-02
   0.328403E-02
   0.543973E-02
   0.109222E-02
   0.255800E-03
   0.753403E-02
   0.329697E-02
   0.328863E-02
   0.107525E-02
   0.473653E-02
   0.273827E-03
   0.178231E-02
   0.402942E-02
   0.425663E-02
   0.205589E-02
   0.725962E-05
   0.882256E-05
   0.590090E-03
   0.145139E-04
   0.481074E-02
   0.433047E-02
   0.755422E-02
   0.418799E-02
   0.346898E-02
   0.329720E-02
   0.103000E-04
   0.627482E-03
   0.297741E-02
   0.245290E-02
   0.646457E-02
   0.529887E-02
   0.558528E-02
   0.338508E-02
   0.203836E-02
   0.211046E-02
   0.227787E-02
   0.151282E-02
   0.251577E-02
   0.120165E-02
   0.717280E-02
   0.430211E-02
   0.416775E-02
   0.546099E-02
   0.628980E-02
   0.528295E-02
   0.322497E-05
   0.629692E-03
   0.321243E-02
   0.317264E-02
   0.113456E-04
   0.105900E-04
   0.373854E-02
   0.368359E-02
   0.327177E-03
   0.525897E-02
   0.898516E-03
   0.315368E-02
   0.165385E-02
   0.978486E-03
   0.542708E-02
   0.121831E-02
   0.127654E-04
   0.550379E-02
   0.628059E-02
   0.626864E-02
   0.329382E-02
   0.776846E-02
   0.329241E-02
   0.362372E-02
   0.105046E-02
   0.177343E-02
   0.475240E-02
   0.107772E-02
   0.264629E-03
   0.397455E-02
   0.179405E-02
   0.425961E-02
   0.625228E-02
   0.530223E-02
   0.550379E-02
   0.328581E-05
   0.360491E-02
   0.246367E-02
   0.524742E-02
   0.329315E-03
   0.884943E-03
   0.169126E-02
   0.315396E-02
   0.100539E-02
   0.141587E-02
   0.138847E-02
   0.162044E-04
   0.228952E-05
   0.387645E-02
   0.385211E-02
   0.715375E-02
   0.334756E-02
   0.339624E-02
   0.319464E-04
   0.529186E-02
   0.485497E-02
   0.548039E-02
   0.179029E-02
   0.299465E-02
   0.417726E-02
   0.690302E-02
   0.454454E-02
   0.403621E-02
   0.196069E-02
   0.195139E-02
   0.558116E-02
   0.640197E-02
   0.646008E-02
   0.755176E-02
   0.432962E-02
   0.417813E-02
   0.564171E-05
   0.401178E-02
   0.179324E-02
   0.297904E-02
   0.632419E-03
   0.244935E-02
   0.480932E-02
   0.137037E-04
   0.300742E-02
   0.688430E-02
   0.300500E-02
   0.309236E-06
   0.564876E-05
   0.196495E-02
   0.224442E-02
   0.225044E-02
   0.776582E-02
   0.327111E-02
   0.328729E-02
   0.105560E-02
   0.362467E-02
   0.177670E-02
   0.152183E-02
   0.427427E-02
   0.401510E-02
   0.314330E-02
   0.106186E-02
   0.420722E-02
   0.456686E-02
   0.195410E-02
   0.403284E-02
   0.475371E-02
   0.547777E-02
   0.544879E-02
   0.206798E-05
   0.223344E-02
   0.197091E-02
   0.629868E-02
   0.530629E-02
   0.546853E-02
   0.634513E-03
   0.349479E-05
   0.475694E-02
   0.292227E-05
   0.173156E-04
   0.137348E-04
   0.614404E-03
   0.253527E-02
   0.229836E-02
   0.382130E-02
   0.993194E-03
   0.200415E-02
   0.528432E-02
   0.549685E-02
   0.627733E-02
   0.245228E-02
   0.361116E-02
   0.468378E-05
   0.368522E-02
   0.169084E-02