# vtk DataFile Version 2.0
This file was created by Fortran
ASCII
DATASET UNSTRUCTURED_GRID
POINTS  1500  DOUBLE
  -0.446268E+00   0.232464E+00  -0.326811E+00
  -0.434711E+00   0.117101E+00  -0.396628E+00
  -0.361829E+00   0.117071E+00  -0.464084E+00
  -0.291858E+00   0.229349E+00  -0.471400E+00
  -0.383191E+00   0.325564E+00  -0.327373E+00
  -0.293371E+00   0.322280E+00  -0.412394E+00
  -0.546484E+00   0.216441E+00  -0.120451E+00
  -0.545936E+00   0.116689E+00  -0.219858E+00
  -0.500427E+00   0.117191E+00  -0.309579E+00
  -0.445361E+00   0.323778E+00  -0.238373E+00
  -0.501397E+00   0.306497E+00  -0.121081E+00
  -0.271407E+00   0.114041E+00  -0.522813E+00
  -0.181460E+00   0.113470E+00  -0.560533E+00
  -0.201466E+00   0.317303E+00  -0.467686E+00
  -0.867342E-01   0.294770E+00  -0.515352E+00
  -0.863101E-01   0.207946E+00  -0.556155E+00
  -0.433646E+00   0.397162E+00  -0.119219E+00
  -0.291591E+00   0.413239E+00  -0.322813E+00
  -0.287079E+00   0.473279E+00  -0.231501E+00
  -0.360582E+00   0.464530E+00  -0.119133E+00
  -0.197873E+00   0.470021E+00  -0.316111E+00
  -0.861539E-01   0.385194E+00  -0.451888E+00
  -0.861350E-01   0.452905E+00  -0.384002E+00
  -0.408011E+00   0.101040E-04  -0.439918E+00
  -0.500453E+00  -0.117196E+00  -0.309535E+00
  -0.527762E+00  -0.506195E-05  -0.285425E+00
  -0.434457E+00  -0.117166E+00  -0.396887E+00
  -0.247622E+00   0.312575E-05  -0.546519E+00
  -0.361541E+00  -0.117094E+00  -0.464303E+00
  -0.271346E+00  -0.114007E+00  -0.522852E+00
  -0.583028E+00  -0.100200E+00  -0.100191E+00
  -0.583029E+00   0.100195E+00  -0.100190E+00
  -0.545956E+00  -0.116691E+00  -0.219807E+00
  -0.591799E+00  -0.327212E-05  -0.988650E-01
  -0.644990E-01  -0.107641E-04  -0.590605E+00
  -0.181389E+00  -0.113478E+00  -0.560554E+00
  -0.657599E-01   0.949983E-01  -0.588771E+00
  -0.657483E-01  -0.950126E-01  -0.588770E+00
  -0.268036E+00   0.524537E+00  -0.114096E+00
  -0.830726E-01   0.516148E+00  -0.294433E+00
  -0.177877E+00   0.561688E+00  -0.113431E+00
  -0.826702E-01   0.556808E+00  -0.207678E+00
  -0.408031E+00   0.439899E+00   0.339736E-05
  -0.433649E+00   0.397158E+00   0.119225E+00
  -0.501400E+00   0.306489E+00   0.121090E+00
  -0.527767E+00   0.285415E+00   0.421910E-05
   0.290829E-01   0.420082E+00  -0.420080E+00
   0.290804E-01   0.269688E+00  -0.529163E+00
   0.141412E+00   0.290241E+00  -0.505730E+00
   0.140848E+00   0.377827E+00  -0.444307E+00
  -0.546485E+00   0.216433E+00   0.120461E+00
  -0.583027E+00   0.100197E+00   0.100198E+00
  -0.591798E+00   0.988701E-01   0.306663E-05
   0.288793E-01   0.928931E-01  -0.586660E+00
   0.140745E+00   0.203810E+00  -0.546491E+00
   0.121829E+00   0.947063E-01  -0.579818E+00
  -0.446062E+00  -0.232541E+00  -0.327037E+00
  -0.382929E+00  -0.325618E+00  -0.327625E+00
  -0.291492E+00  -0.229371E+00  -0.471615E+00
  -0.293068E+00  -0.322300E+00  -0.412595E+00
  -0.247659E+00   0.546502E+00   0.176023E-05
  -0.268038E+00   0.524535E+00   0.114100E+00
  -0.360585E+00   0.464526E+00   0.119138E+00
   0.290672E-01   0.529160E+00  -0.269678E+00
   0.140828E+00   0.445277E+00  -0.376690E+00
   0.138023E+00   0.506778E+00  -0.290044E+00
  -0.546497E+00  -0.216438E+00  -0.120397E+00
  -0.501412E+00  -0.306494E+00  -0.121026E+00
  -0.445385E+00  -0.323779E+00  -0.238326E+00
  -0.201396E+00  -0.317302E+00  -0.467717E+00
  -0.862256E-01  -0.207931E+00  -0.556174E+00
  -0.866485E-01  -0.294762E+00  -0.515371E+00
  -0.591797E+00  -0.988725E-01   0.138977E-05
  -0.591798E+00  -0.172835E-05   0.988699E-01
   0.119297E+00  -0.165612E-06  -0.583664E+00
   0.288909E-01  -0.928892E-01  -0.586656E+00
  -0.645244E-01   0.590593E+00   0.150810E-05
  -0.658039E-01   0.588764E+00   0.950111E-01
  -0.177879E+00   0.561687E+00   0.113432E+00
  -0.658055E-01   0.588763E+00  -0.950120E-01
   0.288655E-01   0.586667E+00  -0.928980E-01
   0.137325E+00   0.547412E+00  -0.203672E+00
   0.121810E+00   0.579821E+00  -0.947118E-01
  -0.583027E+00  -0.100199E+00   0.100196E+00
  -0.546497E+00  -0.216438E+00   0.120398E+00
  -0.527768E+00  -0.285413E+00   0.148252E-05
   0.121842E+00  -0.946989E-01  -0.579816E+00
   0.291045E-01  -0.269682E+00  -0.529156E+00
   0.140717E+00  -0.203804E+00  -0.546500E+00
  -0.445840E+00   0.232497E+00   0.327371E+00
  -0.500428E+00   0.117186E+00   0.309579E+00
  -0.545934E+00   0.116682E+00   0.219866E+00
  -0.445365E+00   0.323767E+00   0.238380E+00
   0.248443E+00   0.303402E+00  -0.447396E+00
   0.231970E+00   0.109422E+00  -0.542417E+00
   0.313780E+00   0.109787E+00  -0.499489E+00
   0.328843E+00   0.217022E+00  -0.446942E+00
  -0.433650E+00  -0.397156E+00  -0.119223E+00
  -0.360586E+00  -0.464525E+00  -0.119137E+00
  -0.291591E+00  -0.413235E+00  -0.322817E+00
  -0.287086E+00  -0.473272E+00  -0.231505E+00
  -0.197875E+00  -0.470019E+00  -0.316114E+00
  -0.861393E-01  -0.385197E+00  -0.451889E+00
  -0.861331E-01  -0.452905E+00  -0.384003E+00
  -0.291590E+00   0.413237E+00   0.322816E+00
  -0.382714E+00   0.325591E+00   0.327904E+00
  -0.287085E+00   0.473274E+00   0.231503E+00
   0.245236E+00   0.449939E+00  -0.302442E+00
   0.332856E+00   0.307983E+00  -0.392879E+00
   0.331295E+00   0.393748E+00  -0.308555E+00
  -0.545955E+00  -0.116690E+00   0.219810E+00
  -0.527763E+00  -0.718809E-06   0.285423E+00
   0.289753E+00   0.859814E-05  -0.521700E+00
   0.231934E+00  -0.109419E+00  -0.542434E+00
   0.119297E+00   0.583652E+00   0.656678E-06
   0.288675E-01   0.586664E+00   0.928986E-01
  -0.830737E-01   0.516146E+00   0.294434E+00
  -0.197871E+00   0.470021E+00   0.316112E+00
  -0.826711E-01   0.556808E+00   0.207678E+00
  -0.501412E+00  -0.306494E+00   0.121027E+00
  -0.433650E+00  -0.397157E+00   0.119224E+00
  -0.408033E+00  -0.439897E+00   0.129994E-05
   0.228672E+00   0.543804E+00  -0.109482E+00
   0.324400E+00   0.448620E+00  -0.218996E+00
   0.310758E+00   0.501340E+00  -0.109945E+00
   0.141383E+00  -0.290243E+00  -0.505737E+00
   0.290939E-01  -0.420086E+00  -0.420080E+00
   0.140867E+00  -0.377828E+00  -0.444300E+00
  -0.500457E+00  -0.117194E+00   0.309530E+00
  -0.446060E+00  -0.232547E+00   0.327035E+00
  -0.445384E+00  -0.323780E+00   0.238326E+00
   0.313750E+00  -0.109771E+00  -0.499511E+00
   0.248403E+00  -0.303391E+00  -0.447384E+00
   0.328588E+00  -0.217066E+00  -0.447160E+00
  -0.268041E+00  -0.524534E+00  -0.114099E+00
  -0.177883E+00  -0.561686E+00  -0.113433E+00
  -0.830774E-01  -0.516145E+00  -0.294435E+00
  -0.826778E-01  -0.556806E+00  -0.207681E+00
   0.121812E+00   0.579821E+00   0.947091E-01
   0.290699E-01   0.529161E+00   0.269679E+00
   0.137330E+00   0.547411E+00   0.203670E+00
   0.289761E+00   0.521660E+00  -0.328186E-05
   0.228675E+00   0.543803E+00   0.109480E+00
  -0.434461E+00  -0.117169E+00   0.396882E+00
  -0.434230E+00   0.117108E+00   0.397152E+00
  -0.408012E+00  -0.177126E-05   0.439916E+00
   0.431927E+00   0.140509E-04  -0.411711E+00
   0.394538E+00   0.110345E+00  -0.438364E+00
   0.394305E+00  -0.110375E+00  -0.438567E+00
  -0.291260E+00   0.229284E+00   0.471801E+00
  -0.361266E+00   0.117037E+00   0.464531E+00
  -0.292805E+00   0.322234E+00   0.412833E+00
   0.413180E+00   0.306769E+00  -0.308504E+00
   0.457894E+00   0.110389E+00  -0.371682E+00
   0.463799E+00   0.216049E+00  -0.304295E+00
  -0.360585E+00  -0.464526E+00   0.119138E+00
  -0.268040E+00  -0.524534E+00   0.114100E+00
  -0.247662E+00  -0.546501E+00   0.503614E-06
   0.140832E+00  -0.445279E+00  -0.376686E+00
   0.290624E-01  -0.529162E+00  -0.269682E+00
   0.138017E+00  -0.506780E+00  -0.290044E+00
  -0.861394E-01   0.385198E+00   0.451888E+00
  -0.201446E+00   0.317295E+00   0.467700E+00
  -0.861291E-01   0.452906E+00   0.384002E+00
   0.393527E+00   0.438772E+00  -0.112322E+00
   0.462562E+00   0.301110E+00  -0.221304E+00
   0.457034E+00   0.372140E+00  -0.112391E+00
  -0.382927E+00  -0.325624E+00   0.327622E+00
  -0.291589E+00  -0.413236E+00   0.322819E+00
  -0.287084E+00  -0.473274E+00   0.231505E+00
   0.332620E+00  -0.308004E+00  -0.393061E+00
   0.245237E+00  -0.449935E+00  -0.302431E+00
   0.331303E+00  -0.393751E+00  -0.308543E+00
   0.138025E+00   0.506778E+00   0.290044E+00
   0.290941E-01   0.420085E+00   0.420080E+00
   0.140834E+00   0.445278E+00   0.376687E+00
   0.431970E+00   0.411664E+00  -0.569228E-05
   0.393531E+00   0.438771E+00   0.112312E+00
   0.310761E+00   0.501339E+00   0.109939E+00
  -0.361535E+00  -0.117113E+00   0.464303E+00
  -0.291486E+00  -0.229380E+00   0.471615E+00
  -0.293063E+00  -0.322304E+00   0.412594E+00
   0.457693E+00  -0.110430E+00  -0.371917E+00
   0.412970E+00  -0.306828E+00  -0.308727E+00
   0.463594E+00  -0.216100E+00  -0.304454E+00
  -0.271336E+00  -0.114025E+00   0.522853E+00
  -0.271388E+00   0.114015E+00   0.522828E+00
  -0.247631E+00  -0.450828E-05   0.546515E+00
   0.534044E+00   0.100305E-04  -0.263715E+00
   0.514870E+00   0.108967E+00  -0.288158E+00
   0.514899E+00  -0.108960E+00  -0.288108E+00
  -0.177881E+00  -0.561686E+00   0.113433E+00
  -0.658077E-01  -0.588763E+00   0.950119E-01
  -0.658111E-01  -0.588763E+00  -0.950136E-01
  -0.645290E-01  -0.590593E+00   0.122275E-05
   0.137318E+00  -0.547413E+00  -0.203673E+00
   0.288593E-01  -0.586666E+00  -0.928993E-01
   0.121803E+00  -0.579822E+00  -0.947128E-01
   0.245243E+00   0.449934E+00   0.302434E+00
   0.324407E+00   0.448619E+00   0.218991E+00
  -0.862873E-01   0.207930E+00   0.556165E+00
  -0.181456E+00   0.113465E+00   0.560535E+00
  -0.867072E-01   0.294759E+00   0.515363E+00
   0.515748E+00   0.285189E+00  -0.112568E+00
   0.553651E+00   0.108637E+00  -0.204128E+00
   0.554140E+00   0.200879E+00  -0.112142E+00
   0.140865E+00   0.377827E+00   0.444301E+00
   0.290971E-01   0.269682E+00   0.529157E+00
   0.141432E+00   0.290237E+00   0.505726E+00
  -0.197871E+00  -0.470019E+00   0.316116E+00
[...]
POINT_DATA  1500
SCALARS  vx_strength  double
LOOKUP_TABLE default
   0.195811E-02
   0.285675E-02
   0.507250E-02
   0.157681E-03
   0.440488E-02
   0.990790E-03
   0.191616E-02
   0.181935E-02
   0.341149E-02
   0.206163E-02
   0.343708E-02
   0.693393E-03
   0.662049E-02
   0.674555E-02
   0.324139E-02
   0.301845E-02
   0.287530E-02
   0.111404E-02
   0.598722E-04
   0.524064E-02
   0.654866E-02
   0.225187E-02
   0.221711E-02
   0.564614E-04
   0.334042E-02
   0.542756E-04
   0.278645E-02
   0.229317E-03
   0.509110E-02
   0.105785E-02
   0.179837E-02
   0.179334E-02
   0.187620E-02
   0.411090E-05
   0.547652E-04
   0.633151E-02
   0.241691E-02
   0.233180E-02
   0.902981E-03
   0.309860E-02
   0.653808E-02
   0.305843E-02
   0.705706E-06
   0.285748E-02
   0.344233E-02
   0.104961E-04
   0.389836E-02
   0.475596E-02
   0.525721E-02
   0.459109E-02
   0.191783E-02
   0.181756E-02
   0.818333E-05
   0.399845E-02
   0.438288E-02
   0.477036E-02
   0.194537E-02
   0.442818E-02
   0.165789E-03
   0.931199E-03
   0.225001E-04
   0.921316E-03
   0.525173E-02
   0.477988E-02
   0.456636E-02
   0.522753E-02
   0.191891E-02
   0.343982E-02
   0.202691E-02
   0.683075E-02
   0.304984E-02
   0.332474E-02
   0.393820E-05
   0.835604E-05
   0.103450E-04
   0.393334E-02
   0.512486E-04
   0.260899E-02
   0.649052E-02
   0.270378E-02
   0.409461E-02
   0.433161E-02
   0.482924E-02
   0.181060E-02
   0.192026E-02
   0.588898E-05
   0.475873E-02
   0.479183E-02
   0.438763E-02
   0.195133E-02
   0.337184E-02
   0.185866E-02
   0.203894E-02
   0.464728E-03
   0.799638E-05
   0.211290E-02
   0.189861E-02
   0.285984E-02
   0.524881E-02
   0.117157E-02
   0.203590E-04
   0.651512E-02
   0.228549E-02
   0.223152E-02
   0.116710E-02
   0.440993E-02
   0.354328E-04
   0.718496E-03
   0.322866E-02
   0.343754E-02
   0.186177E-02
   0.604219E-05
   0.171572E-04
   0.154914E-04
   0.132856E-04
   0.403007E-02
   0.311395E-02
   0.653045E-02
   0.303392E-02
   0.343958E-02
   0.285593E-02
   0.274233E-05
   0.104334E-03
   0.224721E-02
   0.231730E-02
   0.526621E-02
   0.390955E-02
   0.461474E-02
   0.333956E-02
   0.195948E-02
   0.202641E-02
   0.215804E-02
   0.454871E-03
   0.189633E-02
   0.900164E-03
   0.653227E-02
   0.310004E-02
   0.304494E-02
   0.482042E-02
   0.478395E-02
   0.434933E-02
   0.634008E-05
   0.120514E-03
   0.278703E-02
   0.275982E-02
   0.399155E-05
   0.101403E-04
   0.386461E-02
   0.382860E-02
   0.138376E-03
   0.508379E-02
   0.959233E-03
   0.355790E-02
   0.216138E-02
   0.122247E-02
   0.524958E-02
   0.927647E-03
   0.233246E-04
   0.457768E-02
   0.478651E-02
   0.524682E-02
   0.228336E-02
   0.680926E-02
   0.223803E-02
   0.383612E-02
   0.129644E-02
   0.225810E-02
   0.441670E-02
   0.116941E-02
   0.301230E-04
   0.320020E-02
   0.711770E-03
   0.343034E-02
   0.523228E-02
   0.391068E-02
   0.457540E-02
   0.426284E-05
   0.382005E-02
   0.233701E-02
   0.508716E-02
   0.136143E-03
   0.957615E-03
   0.219105E-02
   0.355901E-02
   0.124548E-02
   0.105057E-02
   0.102261E-02
   0.210614E-04
   0.294008E-07
   0.393109E-02
   0.391821E-02
   0.648748E-02
   0.261098E-02
   0.269781E-02
   0.486515E-04
   0.435516E-02
   0.409256E-02
   0.483465E-02
   0.721222E-03
   0.226360E-02
   0.305417E-02
   0.637489E-02
   0.332420E-02
   0.408061E-02
   0.215780E-02
   0.217181E-02
   0.461194E-02
   0.479223E-02
   0.526382E-02
   0.653423E-02
   0.313052E-02
   0.304130E-02
   0.342318E-05
   0.406526E-02
   0.227359E-02
   0.224196E-02
   0.105263E-03
   0.231281E-02
   0.403225E-02
   0.116618E-04
   0.233419E-02
   0.635764E-02
   0.236053E-02
   0.262938E-04
   0.242573E-05
   0.215525E-02
   0.225996E-02
   0.226599E-02
   0.681322E-02
   0.226949E-02
   0.222909E-02
   0.130278E-02
   0.383861E-02
   0.225904E-02
   0.460949E-03
   0.345365E-02
   0.322622E-02
   0.354847E-02
   0.130618E-02
   0.306637E-02
   0.333709E-02
   0.217070E-02
   0.407781E-02
   0.395972E-02
   0.439082E-02
   0.477061E-02
   0.865152E-06
   0.225031E-02
   0.218368E-02
   0.480500E-02
   0.437469E-02
   0.482966E-02
   0.122052E-03
   0.571931E-05
   0.392561E-02
   0.781455E-05
   0.119703E-04
   0.867947E-05
   0.211945E-04
   0.190799E-02
   0.215906E-02
   0.388022E-02
   0.123829E-02
   0.219479E-02
   0.390499E-02
   0.458229E-02
   0.525031E-02
   0.232813E-02
   0.382680E-02
   0.358609E-05
   0.383637E-02
   0.218535E-02
   0.476078E-02
   0.480184E-02
   0.439733E-02
   0.131912E-04
   0.224553E-02
   0.218429E-02
   0.527398E-02
   0.463041E-02
   0.225598E-02
   0.406760E-02
   0.714315E-03
   0.225671E-02
   0.248544E-04
   0.525788E-04
   0.224317E-04
   0.221438E-02
   0.196833E-04
   0.222297E-02
   0.378006E-02
   0.391821E-02
   0.220779E-02
   0.462023E-03
   0.320392E-02
   0.343942E-02
   0.354723E-02
   0.130698E-02
   0.192500E-02
   0.125409E-02
   0.197711E-02
   0.311679E-02
   0.515177E-02
   0.250666E-03
   0.467925E-02
   0.922675E-03
   0.212818E-02
   0.199880E-02
   0.360547E-02
   0.218679E-02
   0.347558E-02
   0.118905E-02
   0.719031E-02
   0.775432E-02
   0.451075E-02
   0.418247E-02
   0.329783E-02
   0.103996E-02
   0.284599E-03
   0.542926E-02
   0.755856E-02
   0.331056E-02
   0.327175E-02
   0.521101E-04
   0.337503E-02
   0.695245E-04
   0.318511E-02
   0.189235E-03
   0.527402E-02
   0.138492E-02
   0.181138E-02
   0.182365E-02
   0.208427E-02
   0.837300E-05
   0.323472E-04
   0.690450E-02
   0.310730E-02
   0.300120E-02
   0.120788E-02
   0.431235E-02
   0.717293E-02
   0.418706E-02
   0.758885E-05
   0.329976E-02
   0.347278E-02
   0.811854E-05
   0.530365E-02
   0.638327E-02
   0.646037E-02
   0.555948E-02
   0.212740E-02
   0.183680E-02
   0.676227E-06
   0.478368E-02
   0.549843E-02
   0.544329E-02
   0.202674E-02
   0.475164E-02
   0.349419E-03
   0.875002E-03
   0.789235E-05
   0.121051E-02
   0.542715E-02
   0.628504E-02
   0.550728E-02
   0.624390E-02
   0.212831E-02
   0.348503E-02
   0.210658E-02
   0.779080E-02
   0.418953E-02
   0.456120E-02
   0.339645E-05
   0.565277E-05
   0.124562E-04
   0.473887E-02
   0.315866E-04
   0.335400E-02
   0.716245E-02
   0.339913E-02
   0.485684E-02
   0.527284E-02
   0.547422E-02
   0.182852E-02
   0.213190E-02
   0.117361E-04
   0.543109E-02
   0.641121E-02
   0.547165E-02
   0.203419E-02
   0.342248E-02
   0.204685E-02
   0.212678E-02
   0.152058E-02
   0.596393E-03
   0.224861E-02
   0.252772E-02
   0.328403E-02
   0.543973E-02
   0.109222E-02
   0.255800E-03
   0.753403E-02
   0.329697E-02
   0.328863E-02
   0.107525E-02
   0.473653E-02
   0.273827E-03
   0.178231E-02
   0.402942E-02
   0.425663E-02
   0.205589E-02
   0.725962E-05
   0.882256E-05
   0.590090E-03
   0.145139E-04
   0.481074E-02
   0.433047E-02
   0.755422E-02
   0.418799E-02
   0.346898E-02
   0.329720E-02
   0.103000E-04
   0.627482E-03
   0.297741E-02
   0.245290E-02
   0.646457E-02
   0.529887E-02
   0.558528E-02
   0.338508E-02
   0.203836E-02
   0.211046E-02
   0.227787E-02
   0.151282E-02
   0.251577E-02
   0.120165E-02
   0.717280E-02
   0.430211E-02
   0.416775E-02
   0.546099E-02
   0.628980E-02
   0.528295E-02
   0.322497E-05
   0.629692E-03
   0.321243E-02
   0.317264E-02
   0.113456E-04
   0.105900E-04
   0.373854E-02
   0.368359E-02
   0.327177E-03
   0.525897E-02
   0.898516E-03
   0.315368E-02
   0.165385E-02
   0.978486E-03
   0.542708E-02
   0.121831E-02
   0.127654E-04
   0.550379E-02
   0.628059E-02
   0.626864E-02
   0.329382E-02
   0.776846E-02
   0.329241E-02
   0.362372E-02
   0.105046E-02
   0.177343E-02
   0.475240E-02
   0.107772E-02
   0.264629E-03
   0.397455E-02
   0.179405E-02
   0.425961E-02
   0.625228E-02
   0.530223E-02
   0.550379E-02
   0.328581E-05
   0.360491E-02
   0.246367E-02
   0.524742E-02
   0.329315E-03
   0.884943E-03
   0.169126E-02
   0.315396E-02
   0.100539E-02
   0.141587E-02
   0.138847E-02
   0.162044E-04
   0.228952E-05
   0.387645E-02
   0.385211E-02
   0.715375E-02
   0.334756E-02
   0.339624E-02
   0.319464E-04
   0.529186E-02
   0.485497E-02
   0.548039E-02
   0.179029E-02
   0.299465E-02
   0.417726E-02
   0.690302E-02
   0.454454E-02
   0.403621E-02
   0.196069E-02
   0.195139E-02
   0.558116E-02
   0.640197E-02
   0.646008E-02
   0.755176E-02
   0.432962E-02
   0.417813E-02
   0.564171E-05
   0.401178E-02
   0.179324E-02
   0.297904E-02
   0.632419E-03
   0.244935E-02
   0.480932E-02
   0.137037E-04
   0.300742E-02
   0.688430E-02
   0.300500E-02
   0.309236E-06
   0.564876E-05
   0.196495E-02
   0.224442E-02
   0.225044E-02
   0.776582E-02
   0.327111E-02
   0.328729E-02
   0.105560E-02
   0.362467E-02
   0.177670E-02
   0.152183E-02
   0.427427E-02
   0.401510E-02
   0.314330E-02
   0.106186E-02
   0.420722E-02
   0.456686E-02
   0.195410E-02
   0.403284E-02
   0.475371E-02
   0.547777E-02
   0.544879E-02
   0.206798E-05
   0.223344E-02
   0.197091E-02
   0.629868E-02
   0.530629E-02
   0.546853E-02
   0.634513E-03
   0.349479E-05
   0.475694E-02
   0.292227E-05
   0.173156E-04
   0.137348E-04
   0.614404E-03
   0.253527E-02
   0.229836E-02
   0.382130E-02
   0.993194E-03
   0.200415E-02
   0.528432E-02
   0.549685E-02
   0.627733E-02
   0.245228E-02
   0.361116E-02
   0.468378E-05
   0.368522E-02
   0.169084E-02
   0.545265E-02
   0.640986E-02
   0.545455E-02
   0.813334E-05
   0.203963E-02
   0.214229E-02
   0.646614E-02
   0.560055E-02
   0.178246E-02
   0.402187E-02
   0.180398E-02
   0.299566E-02
   0.250988E-05
   0.617223E-03
   0.614775E-04
   0.199179E-02
   0.536556E-04
   0.236763E-02
   0.355100E-02
   0.387040E-02
   0.179641E-02
   0.151781E-02
   0.396198E-02
   0.427415E-02
   0.316127E-02
   0.104614E-02
   0.255276E-02
   0.102362E-02
   0.230395E-02
   0.355069E-02
   0.603208E-02
   0.512566E-03
   0.551472E-02
   0.190618E-02
   0.252182E-02
   0.242423E-02
   0.409574E-02
   0.264374E-02
   0.388413E-02
   0.252974E-02
   0.821905E-02
   0.868267E-02
   0.370686E-02
   0.385884E-02
   0.396275E-02
   0.213351E-02
   0.510075E-03
   0.635965E-02
   0.841957E-02
   0.264533E-02
   0.267864E-02
   0.113370E-04
   0.375643E-02
   0.263495E-04
   0.386185E-02
   0.110747E-03
   0.611035E-02
   0.257910E-02
   0.189745E-02
   0.194002E-02
   0.248252E-02
   0.904956E-05
   0.826477E-05
   0.800020E-02
   0.252274E-02
   0.244022E-02
   0.236762E-02
   0.368000E-02
   0.841674E-02
   0.410642E-02
   0.145301E-04
   0.400536E-02
   0.386854E-02
   0.672362E-05
   0.732364E-02
   0.849234E-02
   0.655484E-02
   0.544249E-02
   0.252728E-02
   0.192029E-02
   0.304042E-05
   0.636866E-02
   0.595983E-02
   0.544947E-02
   0.243482E-02
   0.564169E-02
   0.336674E-03
   0.181853E-02
   0.664379E-05
   0.239714E-02
   0.632117E-02
   0.842653E-02
   0.541600E-02
   0.632493E-02
   0.252234E-02
   0.390170E-02
   0.252287E-02
   0.871216E-02
   0.388857E-02
   0.375327E-02
   0.805202E-05
   0.204288E-05
   0.918748E-05
   0.638611E-02
   0.248629E-05
   0.299868E-02
   0.841102E-02
   0.299251E-02
   0.648737E-02
   0.576592E-02
   0.564112E-02
   0.191240E-02
   0.253505E-02
   0.127926E-04
   0.551247E-02
   0.852259E-02
   0.592383E-02
   0.244869E-02
   0.381978E-02
   0.241998E-02
   0.255051E-02
   0.406630E-02
   0.287671E-02
   0.218195E-02
   0.323055E-02
   0.396623E-02
   0.637269E-02
   0.217541E-02
   0.519134E-03
   0.841233E-02
   0.260122E-02
   0.272157E-02
   0.214540E-02
   0.563037E-02
   0.512221E-03
   0.432158E-02
   0.451285E-02
   0.471491E-02
   0.244076E-02
   0.945606E-05
   0.305934E-04
   0.288296E-02
   0.575708E-05
   0.649561E-02
   0.370473E-02
   0.843593E-02
   0.412865E-02
   0.386622E-02
   0.400444E-02
   0.165308E-04
   0.289602E-02
   0.374031E-02
   0.236890E-02
   0.656427E-02
   0.729913E-02
   0.547063E-02
   0.377001E-02
   0.244850E-02
   0.252688E-02
   0.221771E-02
   0.406930E-02
   0.320895E-02
   0.235949E-02
   0.842342E-02
   0.366561E-02
   0.409121E-02
   0.567360E-02
   0.844135E-02
   0.578532E-02
   0.360504E-05
   0.291291E-02
   0.391187E-02
   0.385806E-02
   0.155020E-04
   0.710898E-05
   0.192230E-02
   0.183861E-02
   0.338902E-03
   0.610620E-02
   0.183239E-02
   0.110388E-02
   0.614858E-03
   0.598007E-03
   0.632534E-02
   0.240283E-02
   0.119370E-04
   0.536983E-02
   0.840818E-02
   0.634438E-02
   0.259846E-02
   0.870051E-02
   0.271259E-02
   0.171272E-02
   0.675139E-03
   0.745937E-03
   0.565369E-02
   0.214646E-02
   0.515711E-03
   0.442890E-02
   0.434292E-02
   0.473232E-02
   0.634706E-02
   0.730550E-02
   0.538353E-02
   0.262933E-07
   0.168731E-02
   0.239056E-02
   0.606647E-02
   0.333570E-03
   0.179290E-02
   0.659712E-03
   0.109914E-02
   0.624619E-03
   0.264909E-02
   0.260203E-02
   0.118884E-04
   0.364650E-05
   0.296284E-02
   0.292228E-02
   0.840163E-02
   0.298759E-02
   0.299621E-02
   0.185248E-06
   0.576678E-02
   0.648514E-02
   0.564348E-02
   0.433209E-02
   0.375276E-02
   0.385630E-02
   0.797014E-02
   0.371738E-02
   0.308641E-02
   0.133002E-02
   0.128700E-02
   0.545850E-02
   0.849933E-02
   0.654671E-02
   0.843281E-02
   0.369204E-02
   0.411267E-02
   0.527093E-05
   0.305165E-02
   0.771634E-03
   0.374243E-02
   0.290022E-02
   0.236862E-02
   0.648833E-02
   0.336967E-05
   0.241706E-02
   0.792145E-02
   0.240470E-02
   0.361315E-04
   0.124749E-04
   0.134483E-02
   0.191828E-02
   0.192376E-02
   0.868914E-02
   0.256985E-02
   0.273681E-02
   0.673256E-03
   0.171298E-02
   0.753230E-03
   0.406982E-02
   0.473375E-02
   0.447644E-02
   0.109170E-02
   0.681574E-03
   0.391143E-02
   0.376407E-02
   0.129396E-02
   0.308463E-02
   0.636443E-02
   0.591361E-02
   0.549751E-02
   0.122808E-04
   0.190978E-02
   0.131663E-02
   0.843085E-02
   0.578600E-02
   0.567161E-02
   0.291565E-02
   0.408140E-05
   0.642566E-02
   0.250969E-04
   0.137008E-04
   0.135068E-04
   0.290334E-02
   0.322585E-02
   0.224349E-02
   0.291137E-02
   0.611301E-03
   0.136724E-02
   0.727097E-02
   0.533237E-02
   0.636452E-02
   0.238047E-02
   0.169303E-02
   0.251353E-05
   0.184106E-02
   0.668529E-03
   0.558037E-02
   0.851204E-02
   0.587834E-02
   0.837547E-05
   0.138896E-02
   0.178705E-02
   0.655329E-02
   0.547864E-02
   0.780503E-03
   0.307085E-02
   0.435826E-02
   0.375449E-02
   0.216045E-04
   0.291854E-02
   0.115219E-03
   0.131708E-02
   0.976526E-04
   0.233261E-02
   0.160085E-02
   0.292768E-02
   0.930187E-03
   0.405472E-02
   0.437859E-02
   0.476020E-02
   0.114302E-02
   0.628027E-03
   0.322472E-02
   0.673555E-03
   0.326767E-02
   0.526763E-02
   0.964528E-02
   0.158059E-02
   0.914791E-02
   0.369469E-02
   0.386965E-02
   0.385147E-02
   0.590142E-02
   0.367364E-02
   0.584453E-02
   0.485905E-02
   0.139499E-01
   0.139918E-01
   0.118205E-02
   0.413028E-03
   0.591902E-02
   0.434203E-02
   0.181703E-02
   0.100804E-01
   0.133987E-01
   0.179741E-02
   0.160335E-02
   0.942928E-04
   0.557061E-02
   0.102045E-03
   0.584731E-02
   0.194053E-04
   0.953491E-02
   0.486785E-02
   0.249832E-02
   0.260674E-02
   0.382792E-02
   0.546951E-05
   0.537255E-04
   0.137476E-01
   0.362731E-03
   0.489932E-03
   0.455698E-02
   0.777238E-03
   0.143197E-01
   0.120438E-02
   0.189140E-05
   0.602785E-02
   0.579718E-02
   0.470264E-04
   0.126768E-01
   0.138692E-01
   0.179873E-02
   0.808747E-03
   0.391275E-02
   0.251076E-02
   0.126823E-04
   0.126038E-01
   0.277777E-02
   0.215094E-02
   0.343274E-02
   0.931539E-02
   0.134325E-02
   0.354149E-02
   0.103896E-04
   0.465287E-02
   0.100001E-01
   0.139062E-01
   0.105788E-02
   0.189196E-02
   0.387254E-02
   0.585956E-02
   0.351431E-02
   0.140240E-01
   0.501263E-03
   0.111854E-02
   0.327731E-04
   0.255602E-04
   0.252446E-04
   0.126323E-01
   0.315885E-04
   0.500640E-03
   0.142553E-01
   0.515996E-03
   0.128486E-01
   0.310464E-02
   0.295823E-02
   0.250303E-02
   0.391125E-02
   0.149016E-05
   0.230138E-02
   0.138937E-01
   0.270386E-02
   0.347072E-02
   0.565903E-02
   0.371929E-02
   0.353552E-02
   0.114438E-01
   0.105441E-01
   0.962672E-03
   0.189977E-02
   0.596095E-02
   0.100930E-01
   0.438798E-02
   0.179114E-02
   0.134015E-01
   0.185054E-02
   0.149310E-02
   0.434882E-02
   0.930988E-02
   0.178101E-02
   0.112689E-01
   0.162935E-02
   0.123250E-02
   0.376873E-02
   0.954658E-05
   0.516161E-04
   0.106428E-01
   0.587663E-05
   0.128743E-01
   0.770343E-03
   0.134221E-01
   0.124456E-02
   0.579864E-02
   0.602584E-02
   0.735599E-05
   0.108179E-01
   0.203819E-02
   0.676077E-03
   0.178313E-02
   0.126454E-01
   0.833420E-03
   0.557012E-02
   0.345647E-02
   0.349790E-02
   0.855199E-03
   0.114612E-01
   0.185760E-02
   0.455647E-02
   0.143295E-01
   0.791321E-03
   0.122624E-02
   0.303717E-02
   0.139184E-01
   0.310343E-02
   0.365281E-05
   0.108893E-01
   0.592349E-02
   0.585098E-02
   0.179706E-05
   0.838934E-05
   0.451845E-02
   0.467446E-02
   0.132292E-02
   0.954560E-02
   0.353309E-02
   0.522177E-02
   0.299072E-02
   0.139602E-02
   0.100085E-01
   0.465464E-02
   0.142954E-04
   0.929356E-03
   0.138879E-01
   0.190488E-02
   0.185221E-02
   0.140410E-01
   0.152639E-02
   0.501466E-02
   0.131771E-02
   0.293414E-02
   0.931791E-02
   0.435907E-02
   0.176830E-02
   0.150442E-02
   0.112937E-01
   0.126871E-02
   0.192093E-02
   0.126508E-01
   0.964971E-03
   0.116743E-04
   0.507427E-02
   0.602516E-03
   0.946063E-02
   0.130193E-02
   0.346432E-02
   0.292413E-02
   0.524862E-02
   0.139030E-02
   0.496330E-02
   0.487163E-02
   0.829763E-05
   0.413310E-06
   0.115697E-02
   0.124364E-02
   0.142527E-01
   0.497592E-03
   0.527580E-03
   0.274060E-04
   0.306836E-02
   0.128478E-01
   0.295458E-02
   0.112761E-01
   0.201472E-02
   0.441551E-03
   0.137220E-01
   0.115907E-02
   0.124558E-02
   0.133238E-02
   0.146624E-02
   0.818101E-03
   0.138721E-01
   0.176791E-02
   0.134142E-01
   0.778675E-03
   0.125846E-02
   0.804442E-05
   0.130784E-02
   0.288052E-02
   0.202196E-02
   0.108182E-01
   0.672045E-03
   0.128665E-01
   0.874637E-05
   0.567519E-03
   0.135997E-01
   0.521405E-03
   0.740732E-04
   0.372374E-04
   0.128667E-02
   0.419189E-04
   0.425103E-04
   0.140002E-01
   0.187470E-02
   0.142636E-02
   0.133794E-02
   0.501097E-02
   0.292651E-02
   0.114475E-01
   0.124781E-02
   0.154030E-02
   0.523748E-02
   0.134668E-02
   0.547401E-03
   0.107890E-02
   0.146748E-02
   0.124102E-02
   0.126013E-01
   0.270523E-02
   0.225307E-02
   0.503073E-04
   0.378657E-04
   0.140961E-02
   0.139016E-01
   0.306619E-02
   0.302599E-02
   0.108866E-01
   0.357333E-05
   0.126717E-01
   0.370151E-05
   0.171156E-04
   0.404564E-05
   0.106233E-01
   0.186532E-02
   0.873384E-03
   0.119346E-02
   0.137845E-02
   0.134946E-02
   0.126056E-01
   0.834261E-03
   0.193619E-02
   0.600412E-03
   0.506634E-02
   0.134319E-04
   0.463206E-02
   0.292095E-02