# vtk DataFile Version 2.0
This file was created by Fortran
ASCII
DATASET UNSTRUCTURED_GRID
POINTS  2700  DOUBLE
  -0.446435E+00   0.232357E+00  -0.326658E+00
  -0.434893E+00   0.117060E+00  -0.396440E+00
  -0.362061E+00   0.117010E+00  -0.463919E+00
  -0.292190E+00   0.229242E+00  -0.471246E+00
  -0.383419E+00   0.325438E+00  -0.327231E+00
  -0.293665E+00   0.322190E+00  -0.412255E+00
  -0.546551E+00   0.216304E+00  -0.120395E+00
  -0.546001E+00   0.116627E+00  -0.219729E+00
  -0.500534E+00   0.117129E+00  -0.309429E+00
  -0.445519E+00   0.323634E+00  -0.238272E+00
  -0.501502E+00   0.306348E+00  -0.121023E+00
  -0.271722E+00   0.113953E+00  -0.522668E+00
  -0.181868E+00   0.113426E+00  -0.560409E+00
  -0.201852E+00   0.317198E+00  -0.467591E+00
  -0.874175E-01   0.294649E+00  -0.515306E+00
  -0.869845E-01   0.207956E+00  -0.556047E+00
  -0.433812E+00   0.396995E+00  -0.119172E+00
  -0.291873E+00   0.413110E+00  -0.322723E+00
  -0.287401E+00   0.473132E+00  -0.231401E+00
  -0.360812E+00   0.464363E+00  -0.119087E+00
  -0.198262E+00   0.469919E+00  -0.316019E+00
  -0.867952E-01   0.385073E+00  -0.451869E+00
  -0.867741E-01   0.452873E+00  -0.383897E+00
  -0.408184E+00  -0.652214E-05  -0.439757E+00
  -0.500560E+00  -0.117136E+00  -0.309384E+00
  -0.527848E+00  -0.578226E-06  -0.285266E+00
  -0.434636E+00  -0.117112E+00  -0.396706E+00
  -0.247922E+00   0.641894E-05  -0.546383E+00
  -0.361763E+00  -0.117062E+00  -0.464138E+00
  -0.271660E+00  -0.113982E+00  -0.522694E+00
  -0.583054E+00  -0.100124E+00  -0.100118E+00
  -0.583054E+00   0.100122E+00  -0.100117E+00
  -0.546021E+00  -0.116632E+00  -0.219678E+00
  -0.591811E+00  -0.863423E-06  -0.987939E-01
  -0.651954E-01  -0.398191E-05  -0.590674E+00
  -0.181802E+00  -0.113416E+00  -0.560433E+00
  -0.664312E-01   0.951308E-01  -0.588674E+00
  -0.664225E-01  -0.951013E-01  -0.588680E+00
  -0.268369E+00   0.524379E+00  -0.114038E+00
  -0.837572E-01   0.516089E+00  -0.294341E+00
  -0.178277E+00   0.561572E+00  -0.113376E+00
  -0.833360E-01   0.556704E+00  -0.207691E+00
  -0.408209E+00   0.439733E+00   0.586359E-05
  -0.433813E+00   0.396989E+00   0.119190E+00
  -0.501500E+00   0.306346E+00   0.121036E+00
  -0.527849E+00   0.285263E+00   0.358243E-05
   0.281284E-01   0.420192E+00  -0.420210E+00
   0.281250E-01   0.269815E+00  -0.529368E+00
   0.139334E+00   0.290318E+00  -0.506263E+00
   0.138760E+00   0.378160E+00  -0.444680E+00
  -0.546549E+00   0.216302E+00   0.120405E+00
  -0.583054E+00   0.100122E+00   0.100120E+00
  -0.591810E+00   0.987985E-01   0.138189E-05
   0.278970E-01   0.930057E-01  -0.586889E+00
   0.138663E+00   0.204060E+00  -0.546930E+00
   0.119835E+00   0.947447E-01  -0.580227E+00
  -0.446224E+00  -0.232434E+00  -0.326892E+00
  -0.383151E+00  -0.325483E+00  -0.327499E+00
  -0.291821E+00  -0.229280E+00  -0.471456E+00
  -0.293368E+00  -0.322191E+00  -0.412466E+00
  -0.247964E+00   0.546364E+00   0.525335E-05
  -0.268370E+00   0.524375E+00   0.114052E+00
  -0.360813E+00   0.464357E+00   0.119106E+00
   0.281272E-01   0.529345E+00  -0.269810E+00
   0.138735E+00   0.445657E+00  -0.377018E+00
   0.135964E+00   0.507283E+00  -0.290134E+00
  -0.546561E+00  -0.216309E+00  -0.120340E+00
  -0.501512E+00  -0.306352E+00  -0.120970E+00
  -0.445536E+00  -0.323638E+00  -0.238234E+00
  -0.201792E+00  -0.317207E+00  -0.467611E+00
  -0.869021E-01  -0.207960E+00  -0.556058E+00
  -0.873225E-01  -0.294667E+00  -0.515312E+00
  -0.591809E+00  -0.988007E-01   0.222782E-06
  -0.591810E+00  -0.114724E-05   0.987957E-01
   0.117425E+00  -0.193173E-04  -0.584631E+00
   0.279033E-01  -0.930384E-01  -0.586914E+00
  -0.652362E-01   0.590677E+00   0.378522E-05
  -0.664502E-01   0.588675E+00   0.951097E-01
  -0.178279E+00   0.561569E+00   0.113387E+00
  -0.664515E-01   0.588676E+00  -0.951049E-01
   0.278717E-01   0.586884E+00  -0.930063E-01
   0.135287E+00   0.547830E+00  -0.203910E+00
   0.119852E+00   0.580225E+00  -0.947320E-01
  -0.583053E+00  -0.100125E+00   0.100119E+00
  -0.546561E+00  -0.216308E+00   0.120341E+00
  -0.527849E+00  -0.285264E+00  -0.744242E-06
   0.119836E+00  -0.947455E-01  -0.580226E+00
   0.281521E-01  -0.269821E+00  -0.529397E+00
   0.138632E+00  -0.204052E+00  -0.546941E+00
  -0.446003E+00   0.232384E+00   0.327229E+00
  -0.500529E+00   0.117127E+00   0.309438E+00
  -0.545998E+00   0.116624E+00   0.219738E+00
  -0.445516E+00   0.323624E+00   0.238291E+00
   0.245506E+00   0.304303E+00  -0.448775E+00
   0.228942E+00   0.109628E+00  -0.543661E+00
   0.309805E+00   0.109999E+00  -0.501917E+00
   0.324986E+00   0.218441E+00  -0.449684E+00
  -0.433812E+00  -0.396990E+00  -0.119188E+00
  -0.360814E+00  -0.464358E+00  -0.119102E+00
  -0.291879E+00  -0.413093E+00  -0.322740E+00
  -0.287404E+00  -0.473122E+00  -0.231419E+00
  -0.198273E+00  -0.469906E+00  -0.316031E+00
  -0.867810E-01  -0.385068E+00  -0.451876E+00
  -0.867858E-01  -0.452863E+00  -0.383905E+00
  -0.291878E+00   0.413094E+00   0.322739E+00
  -0.382938E+00   0.325451E+00   0.327781E+00
  -0.287403E+00   0.473121E+00   0.231421E+00
   0.242321E+00   0.451327E+00  -0.303329E+00
   0.328688E+00   0.309521E+00  -0.395172E+00
   0.327154E+00   0.396023E+00  -0.310058E+00
  -0.546020E+00  -0.116631E+00   0.219680E+00
  -0.527846E+00  -0.859041E-06   0.285269E+00
   0.286140E+00   0.255890E-05  -0.524484E+00
   0.228915E+00  -0.109631E+00  -0.543672E+00
   0.117417E+00   0.584644E+00   0.419737E-05
   0.278736E-01   0.586878E+00   0.930099E-01
  -0.837593E-01   0.516085E+00   0.294348E+00
  -0.198270E+00   0.469908E+00   0.316031E+00
  -0.833365E-01   0.556700E+00   0.207701E+00
  -0.501512E+00  -0.306352E+00   0.120970E+00
  -0.433812E+00  -0.396990E+00   0.119186E+00
  -0.408210E+00  -0.439732E+00  -0.142450E-06
   0.225671E+00   0.545016E+00  -0.109683E+00
   0.320592E+00   0.451330E+00  -0.220410E+00
   0.306788E+00   0.503733E+00  -0.110157E+00
   0.139321E+00  -0.290323E+00  -0.506263E+00
   0.281457E-01  -0.420195E+00  -0.420212E+00
   0.138790E+00  -0.378160E+00  -0.444671E+00
  -0.500558E+00  -0.117135E+00   0.309388E+00
  -0.446225E+00  -0.232434E+00   0.326891E+00
  -0.445536E+00  -0.323638E+00   0.238235E+00
   0.309785E+00  -0.109987E+00  -0.501932E+00
   0.245481E+00  -0.304297E+00  -0.448758E+00
   0.324751E+00  -0.218476E+00  -0.449881E+00
  -0.268373E+00  -0.524375E+00  -0.114047E+00
  -0.178283E+00  -0.561569E+00  -0.113384E+00
  -0.837649E-01  -0.516084E+00  -0.294347E+00
  -0.833433E-01  -0.556701E+00  -0.207698E+00
   0.119855E+00   0.580224E+00   0.947376E-01
   0.281286E-01   0.529339E+00   0.269809E+00
   0.135296E+00   0.547827E+00   0.203912E+00
   0.286166E+00   0.524454E+00  -0.470857E-06
   0.225677E+00   0.545013E+00   0.109687E+00
  -0.434636E+00  -0.117113E+00   0.396707E+00
  -0.434405E+00   0.117052E+00   0.396978E+00
  -0.408187E+00  -0.485778E-06   0.439754E+00
   0.426922E+00   0.197009E-04  -0.416610E+00
   0.389806E+00   0.111484E+00  -0.442293E+00
   0.389584E+00  -0.111509E+00  -0.442481E+00
  -0.291592E+00   0.229190E+00   0.471642E+00
  -0.361501E+00   0.116985E+00   0.464362E+00
  -0.293107E+00   0.322122E+00   0.412705E+00
   0.408414E+00   0.309926E+00  -0.311678E+00
   0.453156E+00   0.111667E+00  -0.377068E+00
   0.458542E+00   0.219347E+00  -0.308517E+00
  -0.360814E+00  -0.464358E+00   0.119102E+00
  -0.268371E+00  -0.524376E+00   0.114049E+00
  -0.247966E+00  -0.546363E+00   0.798317E-06
   0.138744E+00  -0.445656E+00  -0.377015E+00
   0.281202E-01  -0.529342E+00  -0.269809E+00
   0.135956E+00  -0.507284E+00  -0.290136E+00
  -0.867821E-01   0.385070E+00   0.451874E+00
  -0.201843E+00   0.317203E+00   0.467591E+00
  -0.867813E-01   0.452866E+00   0.383902E+00
   0.388813E+00   0.442666E+00  -0.113454E+00
   0.461981E+00   0.308314E+00  -0.226972E+00
   0.452333E+00   0.377459E+00  -0.113663E+00
  -0.383152E+00  -0.325484E+00   0.327497E+00
  -0.291877E+00  -0.413095E+00   0.322738E+00
  -0.287402E+00  -0.473123E+00   0.231420E+00
   0.328469E+00  -0.309534E+00  -0.395344E+00
   0.242328E+00  -0.451330E+00  -0.303327E+00
   0.327166E+00  -0.396025E+00  -0.310043E+00
   0.135969E+00   0.507282E+00   0.290134E+00
   0.281463E-01   0.420198E+00   0.420213E+00
   0.138746E+00   0.445656E+00   0.377015E+00
   0.426967E+00   0.416505E+00  -0.917172E-05
   0.388819E+00   0.442663E+00   0.113441E+00
   0.306794E+00   0.503730E+00   0.110150E+00
  -0.361772E+00  -0.117057E+00   0.464132E+00
  -0.291821E+00  -0.229287E+00   0.471453E+00
  -0.293368E+00  -0.322194E+00   0.412463E+00
   0.452966E+00  -0.111684E+00  -0.377291E+00
   0.408220E+00  -0.309975E+00  -0.311884E+00
   0.458358E+00  -0.219387E+00  -0.308648E+00
  -0.271666E+00  -0.113983E+00   0.522690E+00
  -0.271716E+00   0.113975E+00   0.522666E+00
  -0.247938E+00  -0.184006E-05   0.546376E+00
   0.534820E+00   0.238761E-04  -0.271970E+00
   0.510779E+00   0.111529E+00  -0.294391E+00
   0.510821E+00  -0.111504E+00  -0.294327E+00
  -0.178281E+00  -0.561569E+00   0.113385E+00
  -0.664532E-01  -0.588675E+00   0.951085E-01
  -0.664570E-01  -0.588675E+00  -0.951068E-01
  -0.652405E-01  -0.590677E+00   0.190870E-05
   0.135280E+00  -0.547832E+00  -0.203912E+00
   0.278659E-01  -0.586884E+00  -0.930068E-01
   0.119845E+00  -0.580227E+00  -0.947319E-01
   0.242336E+00   0.451321E+00   0.303325E+00
   0.320603E+00   0.451323E+00   0.220402E+00
  -0.869598E-01   0.207958E+00   0.556050E+00
  -0.181864E+00   0.113428E+00   0.560410E+00
  -0.873834E-01   0.294666E+00   0.515302E+00
   0.511720E+00   0.291307E+00  -0.115253E+00
   0.550993E+00   0.111262E+00  -0.209827E+00
   0.551517E+00   0.206470E+00  -0.114888E+00
   0.138787E+00   0.378159E+00   0.444673E+00
   0.281504E-01   0.269817E+00   0.529399E+00
   0.139368E+00   0.290315E+00   0.506255E+00
  -0.198270E+00  -0.469908E+00   0.316031E+00
[...]
POINT_DATA  2700
SCALARS  vx_strength  double
LOOKUP_TABLE default
   0.196049E-02
   0.234748E-02
   0.461579E-02
   0.301379E-03
   0.340329E-02
   0.859509E-03
   0.169965E-02
   0.169345E-02
   0.298311E-02
   0.198091E-02
   0.319435E-02
   0.801568E-03
   0.559376E-02
   0.642017E-02
   0.447564E-02
   0.369443E-02
   0.242868E-02
   0.100254E-02
   0.346113E-03
   0.478970E-02
   0.617420E-02
   0.365377E-02
   0.356986E-02
   0.700477E-04
   0.306563E-02
   0.300988E-04
   0.240253E-02
   0.118360E-03
   0.460211E-02
   0.557795E-03
   0.156680E-02
   0.154200E-02
   0.164344E-02
   0.714145E-05
   0.187490E-03
   0.571617E-02
   0.336681E-02
   0.307980E-02
   0.393813E-03
   0.433235E-02
   0.589598E-02
   0.377177E-02
   0.115643E-04
   0.244826E-02
   0.318871E-02
   0.711470E-06
   0.507637E-02
   0.579766E-02
   0.585661E-02
   0.508883E-02
   0.169878E-02
   0.155137E-02
   0.530992E-05
   0.464629E-02
   0.496817E-02
   0.467543E-02
   0.196754E-02
   0.344859E-02
   0.417843E-03
   0.719033E-03
   0.716092E-05
   0.382585E-03
   0.477586E-02
   0.581776E-02
   0.499091E-02
   0.566510E-02
   0.170031E-02
   0.318159E-02
   0.201080E-02
   0.641905E-02
   0.363528E-02
   0.436992E-02
   0.456831E-05
   0.273678E-05
   0.823853E-07
   0.445872E-02
   0.503382E-05
   0.337781E-02
   0.592866E-02
   0.335730E-02
   0.442826E-02
   0.481256E-02
   0.456420E-02
   0.155304E-02
   0.169914E-02
   0.621853E-05
   0.465725E-02
   0.579177E-02
   0.497694E-02
   0.196208E-02
   0.309620E-02
   0.165207E-02
   0.203095E-02
   0.127532E-02
   0.138866E-02
   0.207830E-02
   0.144876E-02
   0.243883E-02
   0.477988E-02
   0.919401E-03
   0.354399E-03
   0.618381E-02
   0.352407E-02
   0.350803E-02
   0.927432E-03
   0.343018E-02
   0.353032E-03
   0.129301E-02
   0.235526E-02
   0.239581E-02
   0.165464E-02
   0.615474E-05
   0.590706E-05
   0.136546E-02
   0.443439E-05
   0.442766E-02
   0.433072E-02
   0.618209E-02
   0.379203E-02
   0.318690E-02
   0.244849E-02
   0.489943E-05
   0.141501E-02
   0.150515E-02
   0.208284E-02
   0.588034E-02
   0.502678E-02
   0.508784E-02
   0.306644E-02
   0.197067E-02
   0.202184E-02
   0.205073E-02
   0.129278E-02
   0.144911E-02
   0.401275E-03
   0.589226E-02
   0.433590E-02
   0.377637E-02
   0.455876E-02
   0.580992E-02
   0.479662E-02
   0.301077E-05
   0.140855E-02
   0.237274E-02
   0.235111E-02
   0.150340E-05
   0.891145E-05
   0.212761E-02
   0.213390E-02
   0.413294E-03
   0.461591E-02
   0.727018E-03
   0.184297E-02
   0.185498E-02
   0.124521E-02
   0.477973E-02
   0.380105E-03
   0.106094E-04
   0.497374E-02
   0.581651E-02
   0.564514E-02
   0.352591E-02
   0.641830E-02
   0.350822E-02
   0.221374E-02
   0.135811E-02
   0.198520E-02
   0.343932E-02
   0.919345E-03
   0.359698E-03
   0.236073E-02
   0.128127E-02
   0.238809E-02
   0.563998E-02
   0.502793E-02
   0.497383E-02
   0.255074E-06
   0.221461E-02
   0.208571E-02
   0.460743E-02
   0.399742E-03
   0.721559E-03
   0.186522E-02
   0.186840E-02
   0.123882E-02
   0.563354E-03
   0.558193E-03
   0.678563E-05
   0.117829E-04
   0.339923E-02
   0.342032E-02
   0.592480E-02
   0.337280E-02
   0.335643E-02
   0.443934E-05
   0.480709E-02
   0.442292E-02
   0.455835E-02
   0.127901E-02
   0.150528E-02
   0.360379E-02
   0.569163E-02
   0.436545E-02
   0.347369E-02
   0.269904E-02
   0.273329E-02
   0.509574E-02
   0.578392E-02
   0.588657E-02
   0.617990E-02
   0.432075E-02
   0.378675E-02
   0.452172E-05
   0.348419E-02
   0.198164E-02
   0.151430E-02
   0.141167E-02
   0.209082E-02
   0.442487E-02
   0.639238E-05
   0.313228E-02
   0.572153E-02
   0.311881E-02
   0.840220E-05
   0.179813E-05
   0.268009E-02
   0.272004E-02
   0.272240E-02
   0.642084E-02
   0.351790E-02
   0.349264E-02
   0.135417E-02
   0.221938E-02
   0.198024E-02
   0.129438E-02
   0.239443E-02
   0.236806E-02
   0.184937E-02
   0.135156E-02
   0.360435E-02
   0.434878E-02
   0.272125E-02
   0.347462E-02
   0.451465E-02
   0.498335E-02
   0.467469E-02
   0.199236E-05
   0.272045E-02
   0.272476E-02
   0.579793E-02
   0.478399E-02
   0.455605E-02
   0.140555E-02
   0.300630E-05
   0.452400E-02
   0.177491E-04
   0.209384E-04
   0.211326E-04
   0.137015E-02
   0.145931E-02
   0.206053E-02
   0.338866E-02
   0.125171E-02
   0.269503E-02
   0.503070E-02
   0.498011E-02
   0.561989E-02
   0.209551E-02
   0.222109E-02
   0.171180E-05
   0.213537E-02
   0.186176E-02
   0.467915E-02
   0.578615E-02
   0.498577E-02
   0.760748E-05
   0.272661E-02
   0.275630E-02
   0.589118E-02
   0.509690E-02
   0.196810E-02
   0.347447E-02
   0.127889E-02
   0.152070E-02
   0.940042E-05
   0.134069E-02
   0.165277E-04
   0.270948E-02
   0.359159E-05
   0.200994E-02
   0.216602E-02
   0.339148E-02
   0.184593E-02
   0.130823E-02
   0.237943E-02
   0.238904E-02
   0.185172E-02
   0.136545E-02
   0.145249E-02
   0.125134E-02
   0.207340E-02
   0.252378E-02
   0.477133E-02
   0.106839E-03
   0.338323E-02
   0.130583E-02
   0.172612E-02
   0.172848E-02
   0.301174E-02
   0.206709E-02
   0.327285E-02
   0.889383E-03
   0.559825E-02
   0.618899E-02
   0.410800E-02
   0.348614E-02
   0.259547E-02
   0.139454E-02
   0.638547E-04
   0.478226E-02
   0.605724E-02
   0.330127E-02
   0.330563E-02
   0.104486E-03
   0.314626E-02
   0.291422E-04
   0.257278E-02
   0.805970E-04
   0.459917E-02
   0.815859E-03
   0.160421E-02
   0.157998E-02
   0.168083E-02
   0.771163E-05
   0.103444E-03
   0.580376E-02
   0.304540E-02
   0.302332E-02
   0.682633E-03
   0.413807E-02
   0.600766E-02
   0.378827E-02
   0.227041E-05
   0.260935E-02
   0.325828E-02
   0.210266E-05
   0.541519E-02
   0.611000E-02
   0.672212E-02
   0.594327E-02
   0.172046E-02
   0.159749E-02
   0.592006E-05
   0.490301E-02
   0.565189E-02
   0.544879E-02
   0.204942E-02
   0.339818E-02
   0.198851E-03
   0.109735E-02
   0.248266E-05
   0.700794E-03
   0.476523E-02
   0.625882E-02
   0.584732E-02
   0.662099E-02
   0.171863E-02
   0.324266E-02
   0.213147E-02
   0.632603E-02
   0.358458E-02
   0.411059E-02
   0.452927E-05
   0.273770E-05
   0.138562E-04
   0.481342E-02
   0.128882E-04
   0.339094E-02
   0.602272E-02
   0.335217E-02
   0.480799E-02
   0.553710E-02
   0.533499E-02
   0.159610E-02
   0.171350E-02
   0.537617E-05
   0.546778E-02
   0.611103E-02
   0.565977E-02
   0.204273E-02
   0.317256E-02
   0.169677E-02
   0.214348E-02
   0.187950E-02
   0.168824E-02
   0.260217E-02
   0.211340E-02
   0.260351E-02
   0.477838E-02
   0.131385E-02
   0.654388E-04
   0.607651E-02
   0.327953E-02
   0.327340E-02
   0.131619E-02
   0.337924E-02
   0.667242E-04
   0.197424E-02
   0.319812E-02
   0.330227E-02
   0.170034E-02
   0.478339E-05
   0.232656E-05
   0.169062E-02
   0.302878E-04
   0.485116E-02
   0.417560E-02
   0.608607E-02
   0.382450E-02
   0.325755E-02
   0.260688E-02
   0.778843E-05
   0.167487E-02
   0.224318E-02
   0.258275E-02
   0.672932E-02
   0.538693E-02
   0.593957E-02
   0.314105E-02
   0.205061E-02
   0.213902E-02
   0.258917E-02
   0.189104E-02
   0.210711E-02
   0.694794E-03
   0.600670E-02
   0.415420E-02
   0.379320E-02
   0.537461E-02
   0.628151E-02
   0.554418E-02
   0.319498E-05
   0.167641E-02
   0.253059E-02
   0.250902E-02
   0.114354E-05
   0.244972E-05
   0.236458E-02
   0.237593E-02
   0.192062E-03
   0.463097E-02
   0.111625E-02
   0.206140E-02
   0.220008E-02
   0.149897E-02
   0.476877E-02
   0.696535E-03
   0.172248E-05
   0.582701E-02
   0.626793E-02
   0.660111E-02
   0.328038E-02
   0.631452E-02
   0.328080E-02
   0.248918E-02
   0.161969E-02
   0.232025E-02
   0.338570E-02
   0.130590E-02
   0.705597E-04
   0.320565E-02
   0.195187E-02
   0.329308E-02
   0.661488E-02
   0.538443E-02
   0.583205E-02
   0.107966E-05
   0.249259E-02
   0.258505E-02
   0.462412E-02
   0.179713E-03
   0.111378E-02
   0.220801E-02
   0.207590E-02
   0.149724E-02
   0.821222E-03
   0.800270E-03
   0.342447E-05
   0.996576E-05
   0.361568E-02
   0.362858E-02
   0.602601E-02
   0.338828E-02
   0.334882E-02
   0.106469E-04
   0.553584E-02
   0.480807E-02
   0.532996E-02
   0.196205E-02
   0.224298E-02
   0.354292E-02
   0.578183E-02
   0.409877E-02
   0.368683E-02
   0.249095E-02
   0.253195E-02
   0.594058E-02
   0.608843E-02
   0.671914E-02
   0.609004E-02
   0.417306E-02
   0.382164E-02
   0.364434E-05
   0.369491E-02
   0.231606E-02
   0.224258E-02
   0.167295E-02
   0.258877E-02
   0.484953E-02
   0.308127E-04
   0.302856E-02
   0.579931E-02
   0.300779E-02
   0.325868E-05
   0.228973E-05
   0.247314E-02
   0.247378E-02
   0.247672E-02
   0.632270E-02
   0.327139E-02
   0.325993E-02
   0.161110E-02
   0.248748E-02
   0.231572E-02
   0.188531E-02
   0.330638E-02
   0.321058E-02
   0.206032E-02
   0.161609E-02
   0.355663E-02
   0.409922E-02
   0.252449E-02
   0.368593E-02
   0.480776E-02
   0.565242E-02
   0.544733E-02
   0.211541E-05
   0.247263E-02
   0.252576E-02
   0.627176E-02
   0.552954E-02
   0.536849E-02
   0.167254E-02
   0.288420E-05
   0.483534E-02
   0.308318E-04
   0.140617E-04
   0.138873E-04
   0.168748E-02
   0.211770E-02
   0.259622E-02
   0.359476E-02
   0.150884E-02
   0.249591E-02
   0.537943E-02
   0.582744E-02
   0.658417E-02
   0.259153E-02
   0.249280E-02
   0.318192E-05
   0.237697E-02
   0.220572E-02
   0.548918E-02
   0.610624E-02
   0.567816E-02
   0.916944E-05
   0.254476E-02
   0.248657E-02
   0.673491E-02
   0.593872E-02
   0.229981E-02
   0.368554E-02
   0.194561E-02
   0.224699E-02
   0.250616E-05
   0.168934E-02
   0.178027E-04
   0.252227E-02
   0.591590E-05
   0.256490E-02
   0.241688E-02
   0.359173E-02
   0.218209E-02
   0.189652E-02
   0.322329E-02
   0.329597E-02
   0.205369E-02
   0.162337E-02
   0.210566E-02
   0.151239E-02
   0.209492E-02
   0.264362E-02
   0.482548E-02
   0.785556E-04
   0.345190E-02
   0.160309E-02
   0.177170E-02
   0.175378E-02
   0.309173E-02
   0.208571E-02
   0.333832E-02
   0.732360E-03
   0.537563E-02
   0.552348E-02
   0.300006E-02
   0.264933E-02
   0.267462E-02
   0.168674E-02
   0.240389E-03
   0.474453E-02
   0.541862E-02
   0.223022E-02
   0.226852E-02
   0.692290E-04
   0.321430E-02
   0.145760E-04
   0.263973E-02
   0.391149E-04
   0.457573E-02
   0.949890E-03
   0.167084E-02
   0.165074E-02
   0.172094E-02
   0.227799E-05
   0.454382E-04
   0.545235E-02
   0.235167E-02
   0.243089E-02
   0.809144E-03
   0.312544E-02
   0.566070E-02
   0.301931E-02
   0.676744E-05
   0.267520E-02
   0.333736E-02
   0.701400E-05
   0.462961E-02
   0.531137E-02
   0.620603E-02
   0.550804E-02
   0.177546E-02
   0.167055E-02
   0.101699E-04
   0.455754E-02
   0.527931E-02
   0.542819E-02
   0.205993E-02
   0.344572E-02
   0.689004E-04
   0.139579E-02
   0.238440E-04
   0.846492E-03
   0.473130E-02
   0.557825E-02
   0.545896E-02
   0.628298E-02
   0.177785E-02
   0.332042E-02
   0.212006E-02
   0.573026E-02
   0.280548E-02
   0.310595E-02
   0.997348E-06
   0.689456E-05
   0.342627E-04
   0.454637E-02
   0.103965E-05
   0.280308E-02
   0.562870E-02
   0.280508E-02
   0.462552E-02
   0.531831E-02
   0.544303E-02
   0.166829E-02
   0.177542E-02
   0.476307E-05
   0.549115E-02
   0.535554E-02
   0.531622E-02
   0.205755E-02
   0.323568E-02
   0.172955E-02
   0.212839E-02
   0.162570E-02
   0.145861E-02
   0.279183E-02
   0.230414E-02
   0.267850E-02
   0.474283E-02
   0.167579E-02
   0.254458E-03
   0.541285E-02
   0.228336E-02
   0.227172E-02
   0.167862E-02
   0.342553E-02
   0.255196E-03
   0.184429E-02
   0.346424E-02
   0.365542E-02
   0.173007E-02
   0.582841E-05
   0.225357E-04
   0.149932E-02
   0.378695E-04
   0.466443E-02
   0.317439E-02
   0.542744E-02
   0.303809E-02
   0.333625E-02
   0.267635E-02
   0.489006E-05
   0.151973E-02
   0.253293E-02
   0.283002E-02
   0.622555E-02
   0.462892E-02
   0.551688E-02
   0.320582E-02
   0.206869E-02
   0.211989E-02
   0.281435E-02
   0.163281E-02
   0.230322E-02
   0.812352E-03
   0.565258E-02
   0.314583E-02
   0.302309E-02
   0.550879E-02
   0.561324E-02
   0.535027E-02
   0.108833E-04
   0.154416E-02
   0.259356E-02
   0.257484E-02
   0.106037E-05
   0.255907E-05
   0.266546E-02
   0.266874E-02
   0.826558E-04
   0.461279E-02
   0.142414E-02
   0.241012E-02
   0.246534E-02
   0.164542E-02
   0.472988E-02
   0.845684E-03
   0.192595E-04
   0.545017E-02
   0.558981E-02
   0.627356E-02
   0.228504E-02
   0.571444E-02
   0.228137E-02
   0.278822E-02
   0.175823E-02
   0.256781E-02
   0.342958E-02
   0.167037E-02
   0.248313E-03
   0.347035E-02
   0.181564E-02
   0.364414E-02
   0.629512E-02
   0.462794E-02
   0.545630E-02
   0.232744E-06
   0.278707E-02
   0.284652E-02
   0.461211E-02
   0.934200E-04
   0.142072E-02
   0.247540E-02
   0.241639E-02
   0.165302E-02
   0.930942E-03
   0.899921E-03
   0.157159E-04
   0.659615E-05
   0.370111E-02
   0.370780E-02
   0.563062E-02
   0.280454E-02
   0.280202E-02
   0.616902E-06
   0.532599E-02
   0.462442E-02
   0.544157E-02
   0.183880E-02
   0.253796E-02
   0.277846E-02
   0.547744E-02
   0.309714E-02
   0.378828E-02
   0.236140E-02
   0.240254E-02
   0.551188E-02
   0.533344E-02
   0.620481E-02
   0.543662E-02
   0.318571E-02
   0.304682E-02
   0.221909E-05
   0.379060E-02
   0.256825E-02
   0.252548E-02
   0.151493E-02
   0.283243E-02
   0.466165E-02
   0.366161E-04
   0.241159E-02
   0.547345E-02
   0.241192E-02
   0.130950E-04
   0.157296E-05
   0.234738E-02
   0.232957E-02
   0.233390E-02
   0.572594E-02
   0.227561E-02
   0.226572E-02
   0.175533E-02
   0.278801E-02
   0.256547E-02
   0.162376E-02
   0.366740E-02
   0.347422E-02
   0.240269E-02
   0.175844E-02
   0.279022E-02
   0.311038E-02
   0.239685E-02
   0.378749E-02
   0.451885E-02
   0.529635E-02
   0.544589E-02
   0.172386E-05
   0.232584E-02
   0.240094E-02
   0.561417E-02
   0.534370E-02
   0.550463E-02
   0.153705E-02
   0.965926E-05
   0.453370E-02
   0.279484E-04
   0.621962E-05
   0.637053E-05
   0.148482E-02
   0.230820E-02
   0.280856E-02
   0.366912E-02
   0.165893E-02
   0.237586E-02
   0.462132E-02
   0.544963E-02
   0.627076E-02
   0.284769E-02
   0.278965E-02
   0.269548E-05
   0.267235E-02
   0.247221E-02
   0.549938E-02
   0.536003E-02
   0.534306E-02
   0.109273E-04
   0.243598E-02
   0.231424E-02
   0.622846E-02
   0.551558E-02
   0.255061E-02
   0.378421E-02
   0.181021E-02
   0.253075E-02
   0.228800E-04
   0.152537E-02
   0.149142E-04
   0.241188E-02
   0.821626E-05
   0.281689E-02
   0.270359E-02
   0.367164E-02
   0.244446E-02
   0.163349E-02
   0.348371E-02
   0.364962E-02
   0.239127E-02
   0.176641E-02
   0.230381E-02
   0.166693E-02
   0.200124E-02
   0.279492E-02
   0.494785E-02
   0.411947E-04
   0.389156E-02
   0.150224E-02
   0.183459E-02
   0.177470E-02
   0.321098E-02
   0.201640E-02
   0.338098E-02
   0.756245E-03
   0.571424E-02
   0.581144E-02
   0.237459E-02
   0.218301E-02
   0.279895E-02
   0.164828E-02
   0.230900E-03
   0.495906E-02
   0.562823E-02
   0.151235E-02
   0.152716E-02
   0.645285E-05
   0.326379E-02
   0.180588E-04
   0.273443E-02
   0.178968E-03
   0.478731E-02
   0.115484E-02
   0.172835E-02
   0.172250E-02
   0.179189E-02
   0.301563E-06
   0.363546E-04
   0.554699E-02
   0.189895E-02
   0.190796E-02
   0.100797E-02
   0.241040E-02
   0.573817E-02
   0.242381E-02
   0.405158E-05
   0.279058E-02
   0.337349E-02
   0.764610E-05
   0.364938E-02
   0.440171E-02
   0.518068E-02
   0.458436E-02
   0.183730E-02
   0.174223E-02
   0.864804E-05
   0.397327E-02
   0.440544E-02
   0.484238E-02
   0.194538E-02
   0.387514E-02
   0.577426E-04
   0.139295E-02
   0.298799E-04
   0.105691E-02
   0.495687E-02
   0.460668E-02
   0.456945E-02
   0.529952E-02
   0.183537E-02
   0.335868E-02
   0.202587E-02
   0.597090E-02
   0.229017E-02
   0.249234E-02
   0.304401E-05
   0.530247E-05
   0.152436E-04
   0.395216E-02
   0.310603E-04
   0.222231E-02
   0.567237E-02
   0.229955E-02
   0.410279E-02
   0.448733E-02
   0.493663E-02
   0.173719E-02
   0.183211E-02
   0.689037E-06
   0.488433E-02
   0.445768E-02
   0.443738E-02
   0.194563E-02
   0.329202E-02
   0.179197E-02
   0.203293E-02
   0.737005E-03
   0.578281E-03
   0.245502E-02
   0.199429E-02
   0.279716E-02
   0.495983E-02
   0.168665E-02
   0.257698E-03
   0.561337E-02
   0.157934E-02
   0.154023E-02
   0.168699E-02
   0.385665E-02
   0.251242E-03
   0.100713E-02
   0.318515E-02
   0.340601E-02
   0.179531E-02
   0.455671E-05
   0.298736E-04
   0.632924E-03
   0.128159E-04
   0.408454E-02
   0.244003E-02
   0.562539E-02
   0.240856E-02
   0.337244E-02
   0.278717E-02
   0.291610E-05
   0.713128E-03
   0.228568E-02
   0.259563E-02
   0.519976E-02
   0.366908E-02
   0.460077E-02
   0.325949E-02
   0.195467E-02
   0.202687E-02
   0.250494E-02
   0.738457E-03
   0.199452E-02
   0.101688E-02
   0.573079E-02
   0.242003E-02
   0.241990E-02
   0.497337E-02
   0.463119E-02
   0.451930E-02
   0.135875E-04
   0.746041E-03
   0.271503E-02
   0.269225E-02
   0.112738E-05
   0.556756E-05
   0.326973E-02
   0.325197E-02
   0.718161E-04
   0.480777E-02
   0.142354E-02
   0.306956E-02
   0.245974E-02
   0.151894E-02
   0.495658E-02
   0.105732E-02
   0.298516E-04
   0.457428E-02
   0.462248E-02
   0.530331E-02
   0.158342E-02
   0.595145E-02
   0.154862E-02
   0.333211E-02
   0.160937E-02
   0.255121E-02
   0.385948E-02
   0.168228E-02
   0.252441E-03
   0.317922E-02
   0.987203E-03
   0.339270E-02
   0.531035E-02
   0.366737E-02
   0.457803E-02
   0.248528E-05
   0.332198E-02
   0.262150E-02
   0.481172E-02
   0.767992E-04
   0.142510E-02
   0.247982E-02
   0.306985E-02
   0.153366E-02
   0.113124E-02
   0.109624E-02
   0.218962E-04
   0.382150E-05
   0.379791E-02
   0.379444E-02
   0.567763E-02
   0.222877E-02
   0.229040E-02
   0.302498E-04
   0.450314E-02
   0.410325E-02
   0.493803E-02
   0.100766E-02
   0.229764E-02
   0.229148E-02
   0.559572E-02
   0.249294E-02
   0.391698E-02
   0.226583E-02
   0.229904E-02
   0.459688E-02
   0.444549E-02
   0.518764E-02
   0.563634E-02
   0.246276E-02
   0.242113E-02
   0.539195E-06
   0.391091E-02
   0.255947E-02
   0.227556E-02
   0.712536E-03
   0.259287E-02
   0.408804E-02
   0.150366E-04
   0.189702E-02
   0.557589E-02
   0.192559E-02
   0.265651E-04
   0.748568E-06
   0.225762E-02
   0.226441E-02
   0.226925E-02
   0.596130E-02
   0.157577E-02
   0.153735E-02
   0.161239E-02
   0.333226E-02
   0.254962E-02
   0.732349E-03
   0.342101E-02
   0.319079E-02
   0.305965E-02
   0.161500E-02
   0.229966E-02
   0.250679E-02
   0.229383E-02
   0.391415E-02
   0.394439E-02
   0.442701E-02
   0.485912E-02
   0.179154E-05
   0.225761E-02
   0.230357E-02
   0.464863E-02
   0.453181E-02
   0.497623E-02
   0.743499E-03
   0.131517E-04
   0.392418E-02
   0.635208E-05
   0.328370E-05
   0.743589E-06
   0.616080E-03
   0.200031E-02
   0.249323E-02
   0.375548E-02
   0.153415E-02
   0.229236E-02
   0.366452E-02
   0.458014E-02
   0.530591E-02
   0.261584E-02
   0.332654E-02
   0.804849E-06
   0.326208E-02
   0.247399E-02