# vtk DataFile Version 2.0
This file was created by Fortran
ASCII
DATASET UNSTRUCTURED_GRID
POINTS  600  DOUBLE
  -0.447559E+00   0.231552E+00  -0.325691E+00
  -0.436119E+00   0.116749E+00  -0.395183E+00
  -0.363585E+00   0.116670E+00  -0.462812E+00
  -0.293976E+00   0.228732E+00  -0.470383E+00
  -0.384949E+00   0.324561E+00  -0.326304E+00
  -0.295654E+00   0.321503E+00  -0.411369E+00
  -0.546992E+00   0.215407E+00  -0.119999E+00
  -0.546432E+00   0.116187E+00  -0.218890E+00
  -0.501323E+00   0.116711E+00  -0.308308E+00
  -0.446641E+00   0.322656E+00  -0.237499E+00
  -0.502280E+00   0.305228E+00  -0.120625E+00
  -0.273490E+00   0.113786E+00  -0.521782E+00
  -0.183898E+00   0.113267E+00  -0.559779E+00
  -0.204075E+00   0.316710E+00  -0.466956E+00
  -0.888663E-01   0.294566E+00  -0.515105E+00
  -0.883960E-01   0.207744E+00  -0.555903E+00
  -0.434995E+00   0.395807E+00  -0.118812E+00
  -0.293848E+00   0.412253E+00  -0.322026E+00
  -0.289209E+00   0.472304E+00  -0.230839E+00
  -0.362305E+00   0.463290E+00  -0.118730E+00
  -0.200526E+00   0.469298E+00  -0.315513E+00
  -0.884574E-01   0.384917E+00  -0.451679E+00
  -0.884472E-01   0.452660E+00  -0.383766E+00
  -0.409444E+00   0.585393E-04  -0.438584E+00
  -0.501394E+00  -0.116620E+00  -0.308227E+00
  -0.528432E+00   0.775846E-04  -0.284183E+00
  -0.435857E+00  -0.116681E+00  -0.395493E+00
  -0.249706E+00   0.338475E-04  -0.545570E+00
  -0.363267E+00  -0.116674E+00  -0.463060E+00
  -0.273451E+00  -0.113742E+00  -0.521811E+00
  -0.583208E+00  -0.996424E-01  -0.996972E-01
  -0.583195E+00   0.997058E-01  -0.997096E-01
  -0.546481E+00  -0.116140E+00  -0.218791E+00
  -0.591877E+00   0.372461E-04  -0.983954E-01
  -0.671518E-01   0.527614E-04  -0.596230E+00
  -0.183856E+00  -0.113184E+00  -0.559809E+00
  -0.678524E-01   0.950422E-01  -0.588526E+00
  -0.678455E-01  -0.949375E-01  -0.588544E+00
  -0.270157E+00   0.523502E+00  -0.113843E+00
  -0.852537E-01   0.515900E+00  -0.294244E+00
  -0.180335E+00   0.560953E+00  -0.113186E+00
  -0.848188E-01   0.556577E+00  -0.207432E+00
  -0.409423E+00   0.438604E+00  -0.339845E-04
  -0.434994E+00   0.395829E+00   0.118743E+00
  -0.502298E+00   0.305239E+00   0.120525E+00
  -0.528416E+00   0.284212E+00  -0.417059E-04
   0.273621E-01   0.419856E+00  -0.419919E+00
   0.273831E-01   0.269578E+00  -0.529080E+00
   0.140766E+00   0.290394E+00  -0.505822E+00
   0.140175E+00   0.377864E+00  -0.444488E+00
  -0.547010E+00   0.215419E+00   0.119894E+00
  -0.583211E+00   0.996875E-01   0.996340E-01
  -0.591879E+00   0.983828E-01  -0.378519E-04
   0.272792E-01   0.929013E-01  -0.586437E+00
   0.140107E+00   0.203937E+00  -0.546608E+00
   0.121004E+00   0.948562E-01  -0.579966E+00
  -0.447363E+00  -0.231616E+00  -0.325914E+00
  -0.384664E+00  -0.324620E+00  -0.326582E+00
  -0.293608E+00  -0.228703E+00  -0.470626E+00
  -0.295336E+00  -0.321519E+00  -0.411585E+00
  -0.249724E+00   0.545562E+00  -0.259685E-04
  -0.270155E+00   0.523515E+00   0.113792E+00
  -0.362301E+00   0.463309E+00   0.118670E+00
   0.273533E-01   0.528962E+00  -0.269519E+00
   0.140166E+00   0.445388E+00  -0.376806E+00
   0.137326E+00   0.506844E+00  -0.290260E+00
  -0.547022E+00  -0.215397E+00  -0.119878E+00
  -0.502306E+00  -0.305233E+00  -0.120506E+00
  -0.446677E+00  -0.322689E+00  -0.237384E+00
  -0.204041E+00  -0.316717E+00  -0.466967E+00
  -0.883432E-01  -0.207669E+00  -0.555940E+00
  -0.888198E-01  -0.294547E+00  -0.515124E+00
  -0.591885E+00  -0.983500E-01  -0.240316E-04
  -0.591887E+00   0.181751E-04   0.983334E-01
   0.118388E+00   0.558848E-04  -0.582775E+00
   0.272892E-01  -0.927947E-01  -0.586426E+00
  -0.672010E-01   0.596225E+00  -0.225000E-04
  -0.678982E-01   0.588537E+00   0.949434E-01
  -0.180332E+00   0.560963E+00   0.113141E+00
  -0.678991E-01   0.588529E+00  -0.949900E-01
   0.272036E-01   0.586424E+00  -0.928428E-01
   0.136626E+00   0.547539E+00  -0.203801E+00
   0.120965E+00   0.579982E+00  -0.948044E-01
  -0.583214E+00  -0.996609E-01   0.996477E-01
  -0.547027E+00  -0.215404E+00   0.119846E+00
  -0.528420E+00  -0.284205E+00  -0.170890E-04
   0.121019E+00  -0.947438E-01  -0.579981E+00
   0.273975E-01  -0.269516E+00  -0.529040E+00
   0.140084E+00  -0.203872E+00  -0.546638E+00
  -0.447141E+00   0.231593E+00   0.326236E+00
  -0.501340E+00   0.116684E+00   0.308290E+00
  -0.546469E+00   0.116182E+00   0.218801E+00
  -0.446662E+00   0.322691E+00   0.237411E+00
   0.248587E+00   0.303094E+00  -0.446873E+00
   0.232269E+00   0.109609E+00  -0.542252E+00
   0.314901E+00   0.109967E+00  -0.498743E+00
   0.329827E+00   0.216459E+00  -0.445571E+00
  -0.434984E+00  -0.395828E+00  -0.118783E+00
  -0.362292E+00  -0.463307E+00  -0.118707E+00
  -0.293841E+00  -0.412292E+00  -0.321982E+00
  -0.289199E+00  -0.472325E+00  -0.230809E+00
  -0.200528E+00  -0.469323E+00  -0.315476E+00
  -0.884609E-01  -0.384953E+00  -0.451648E+00
  -0.884530E-01  -0.452703E+00  -0.383713E+00
  -0.293844E+00   0.412296E+00   0.321975E+00
  -0.384451E+00   0.324601E+00   0.326851E+00
  -0.289203E+00   0.472334E+00   0.230787E+00
   0.245307E+00   0.449307E+00  -0.302185E+00
   0.334248E+00   0.307537E+00  -0.392044E+00
   0.332689E+00   0.392872E+00  -0.308171E+00
  -0.546494E+00  -0.116165E+00   0.218745E+00
  -0.528429E+00   0.138679E-04   0.284188E+00
   0.290130E+00   0.515521E-04  -0.519799E+00
   0.232240E+00  -0.109526E+00  -0.542281E+00
   0.118326E+00   0.582799E+00  -0.238883E-04
   0.272052E-01   0.586426E+00   0.927968E-01
  -0.852504E-01   0.515928E+00   0.294196E+00
  -0.200521E+00   0.469330E+00   0.315469E+00
  -0.848151E-01   0.556594E+00   0.207387E+00
  -0.502309E+00  -0.305240E+00   0.120474E+00
  -0.434990E+00  -0.395830E+00   0.118751E+00
  -0.409418E+00  -0.438608E+00  -0.192081E-04
   0.228910E+00   0.543665E+00  -0.109673E+00
   0.325328E+00   0.447204E+00  -0.218465E+00
   0.311853E+00   0.500617E+00  -0.110137E+00
   0.140738E+00  -0.290388E+00  -0.505833E+00
   0.273640E-01  -0.419868E+00  -0.419862E+00
   0.140207E+00  -0.377892E+00  -0.444454E+00
  -0.501373E+00  -0.116671E+00   0.308242E+00
  -0.447377E+00  -0.231622E+00   0.325892E+00
  -0.446687E+00  -0.322698E+00   0.237354E+00
   0.314881E+00  -0.109902E+00  -0.498770E+00
   0.248559E+00  -0.303078E+00  -0.446828E+00
   0.329568E+00  -0.216470E+00  -0.445768E+00
  -0.270154E+00  -0.523507E+00  -0.113828E+00
  -0.180335E+00  -0.560955E+00  -0.113174E+00
  -0.852557E-01  -0.515923E+00  -0.294203E+00
  -0.848208E-01  -0.556585E+00  -0.207410E+00
   0.120968E+00   0.579990E+00   0.947546E-01
   0.273548E-01   0.528984E+00   0.269472E+00
   0.136631E+00   0.547553E+00   0.203760E+00
   0.290141E+00   0.519799E+00  -0.242347E-04
   0.228913E+00   0.543673E+00   0.109628E+00
  -0.435833E+00  -0.116723E+00   0.395506E+00
  -0.435590E+00   0.116688E+00   0.395785E+00
  -0.409428E+00   0.187071E-04   0.438599E+00
   0.433637E+00   0.321732E-04  -0.409280E+00
   0.396543E+00   0.109953E+00  -0.436651E+00
   0.396319E+00  -0.109949E+00  -0.436856E+00
  -0.293370E+00   0.228626E+00   0.470812E+00
  -0.363003E+00   0.116632E+00   0.463277E+00
  -0.295066E+00   0.321457E+00   0.411827E+00
   0.415296E+00   0.305336E+00  -0.307082E+00
   0.459950E+00   0.109816E+00  -0.369305E+00
   0.465841E+00   0.214643E+00  -0.302321E+00
  -0.362299E+00  -0.463310E+00   0.118671E+00
  -0.270155E+00  -0.523516E+00   0.113788E+00
  -0.249722E+00  -0.545563E+00  -0.213431E-04
   0.140185E+00  -0.445428E+00  -0.376753E+00
   0.273479E-01  -0.528990E+00  -0.269484E+00
   0.137326E+00  -0.506867E+00  -0.290219E+00
  -0.884554E-01   0.384951E+00   0.451651E+00
  -0.204085E+00   0.316711E+00   0.466951E+00
  -0.884456E-01   0.452700E+00   0.383719E+00
   0.395528E+00   0.437065E+00  -0.111944E+00
   0.464622E+00   0.299175E+00  -0.219902E+00
   0.459090E+00   0.369765E+00  -0.111848E+00
  -0.384681E+00  -0.324622E+00   0.326559E+00
  -0.293860E+00  -0.412304E+00   0.321949E+00
  -0.289207E+00  -0.472336E+00   0.230777E+00
   0.334030E+00  -0.307572E+00  -0.392203E+00
   0.245332E+00  -0.449334E+00  -0.302150E+00
   0.332709E+00  -0.392886E+00  -0.308132E+00
   0.137328E+00   0.506868E+00   0.290217E+00
   0.273660E-01   0.419873E+00   0.419872E+00
   0.140181E+00   0.445423E+00   0.376760E+00
   0.433684E+00   0.409256E+00  -0.222099E-04
   0.395537E+00   0.437068E+00   0.111902E+00
   0.311856E+00   0.500625E+00   0.110095E+00
  -0.363289E+00  -0.116669E+00   0.463044E+00
  -0.293632E+00  -0.228691E+00   0.470617E+00
  -0.295359E+00  -0.321530E+00   0.411560E+00
   0.459757E+00  -0.109842E+00  -0.369538E+00
   0.415097E+00  -0.305390E+00  -0.307297E+00
   0.465635E+00  -0.214677E+00  -0.302474E+00
  -0.273478E+00  -0.113725E+00   0.521801E+00
  -0.273508E+00   0.113764E+00   0.521777E+00
  -0.249735E+00   0.366664E-04   0.545557E+00
   0.536314E+00   0.203800E-04  -0.261624E+00
   0.516494E+00   0.107951E+00  -0.285622E+00
   0.516525E+00  -0.107927E+00  -0.285576E+00
  -0.180335E+00  -0.560963E+00   0.113134E+00
  -0.679015E-01  -0.588538E+00   0.949351E-01
  -0.679019E-01  -0.588531E+00  -0.949796E-01
  -0.672031E-01  -0.596225E+00  -0.216836E-04
   0.136625E+00  -0.547547E+00  -0.203780E+00
   0.271990E-01  -0.586435E+00  -0.928341E-01
   0.120960E+00  -0.579985E+00  -0.947943E-01
   0.245324E+00   0.449325E+00   0.302144E+00
   0.325335E+00   0.447208E+00   0.218426E+00
  -0.883995E-01   0.207692E+00   0.555922E+00
  -0.183920E+00   0.113238E+00   0.559777E+00
  -0.888737E-01   0.294551E+00   0.515113E+00
   0.517360E+00   0.282666E+00  -0.111527E+00
   0.554681E+00   0.107544E+00  -0.201900E+00
   0.555166E+00   0.198659E+00  -0.111020E+00
   0.140199E+00   0.377890E+00   0.444459E+00
   0.273935E-01   0.269544E+00   0.529050E+00
   0.140787E+00   0.290391E+00   0.505818E+00
  -0.200541E+00  -0.469341E+00   0.315440E+00
[...]
POINT_DATA  600
SCALARS  vx_strength  double
LOOKUP_TABLE default
   0.326767E-02
   0.526763E-02
   0.964528E-02
   0.158059E-02
   0.914791E-02
   0.369469E-02
   0.386965E-02
   0.385147E-02
   0.590142E-02
   0.367364E-02
   0.584453E-02
   0.485905E-02
   0.139499E-01
   0.139918E-01
   0.118205E-02
   0.413028E-03
   0.591902E-02
   0.434203E-02
   0.181703E-02
   0.100804E-01
   0.133987E-01
   0.179741E-02
   0.160335E-02
   0.942928E-04
   0.557061E-02
   0.102045E-03
   0.584731E-02
   0.194053E-04
   0.953491E-02
   0.486785E-02
   0.249832E-02
   0.260674E-02
   0.382792E-02
   0.546951E-05
   0.537255E-04
   0.137476E-01
   0.362731E-03
   0.489932E-03
   0.455698E-02
   0.777238E-03
   0.143197E-01
   0.120438E-02
   0.189140E-05
   0.602785E-02
   0.579718E-02
   0.470264E-04
   0.126768E-01
   0.138692E-01
   0.179873E-02
   0.808747E-03
   0.391275E-02
   0.251076E-02
   0.126823E-04
   0.126038E-01
   0.277777E-02
   0.215094E-02
   0.343274E-02
   0.931539E-02
   0.134325E-02
   0.354149E-02
   0.103896E-04
   0.465287E-02
   0.100001E-01
   0.139062E-01
   0.105788E-02
   0.189196E-02
   0.387254E-02
   0.585956E-02
   0.351431E-02
   0.140240E-01
   0.501263E-03
   0.111854E-02
   0.327731E-04
   0.255602E-04
   0.252446E-04
   0.126323E-01
   0.315885E-04
   0.500640E-03
   0.142553E-01
   0.515996E-03
   0.128486E-01
   0.310464E-02
   0.295823E-02
   0.250303E-02
   0.391125E-02
   0.149016E-05
   0.230138E-02
   0.138937E-01
   0.270386E-02
   0.347072E-02
   0.565903E-02
   0.371929E-02
   0.353552E-02
   0.114438E-01
   0.105441E-01
   0.962672E-03
   0.189977E-02
   0.596095E-02
   0.100930E-01
   0.438798E-02
   0.179114E-02
   0.134015E-01
   0.185054E-02
   0.149310E-02
   0.434882E-02
   0.930988E-02
   0.178101E-02
   0.112689E-01
   0.162935E-02
   0.123250E-02
   0.376873E-02
   0.954658E-05
   0.516161E-04
   0.106428E-01
   0.587663E-05
   0.128743E-01
   0.770343E-03
   0.134221E-01
   0.124456E-02
   0.579864E-02
   0.602584E-02
   0.735599E-05
   0.108179E-01
   0.203819E-02
   0.676077E-03
   0.178313E-02
   0.126454E-01
   0.833420E-03
   0.557012E-02
   0.345647E-02
   0.349790E-02
   0.855199E-03
   0.114612E-01
   0.185760E-02
   0.455647E-02
   0.143295E-01
   0.791321E-03
   0.122624E-02
   0.303717E-02
   0.139184E-01
   0.310343E-02
   0.365281E-05
   0.108893E-01
   0.592349E-02
   0.585098E-02
   0.179706E-05
   0.838934E-05
   0.451845E-02
   0.467446E-02
   0.132292E-02
   0.954560E-02
   0.353309E-02
   0.522177E-02
   0.299072E-02
   0.139602E-02
   0.100085E-01
   0.465464E-02
   0.142954E-04
   0.929356E-03
   0.138879E-01
   0.190488E-02
   0.185221E-02
   0.140410E-01
   0.152639E-02
   0.501466E-02
   0.131771E-02
   0.293414E-02
   0.931791E-02
   0.435907E-02
   0.176830E-02
   0.150442E-02
   0.112937E-01
   0.126871E-02
   0.192093E-02
   0.126508E-01
   0.964971E-03
   0.116743E-04
   0.507427E-02
   0.602516E-03
   0.946063E-02
   0.130193E-02
   0.346432E-02
   0.292413E-02
   0.524862E-02
   0.139030E-02
   0.496330E-02
   0.487163E-02
   0.829763E-05
   0.413310E-06
   0.115697E-02
   0.124364E-02
   0.142527E-01
   0.497592E-03
   0.527580E-03
   0.274060E-04
   0.306836E-02
   0.128478E-01
   0.295458E-02
   0.112761E-01
   0.201472E-02
   0.441551E-03
   0.137220E-01
   0.115907E-02
   0.124558E-02
   0.133238E-02
   0.146624E-02
   0.818101E-03
   0.138721E-01
   0.176791E-02
   0.134142E-01
   0.778675E-03
   0.125846E-02
   0.804442E-05
   0.130784E-02
   0.288052E-02
   0.202196E-02
   0.108182E-01
   0.672045E-03
   0.128665E-01
   0.874637E-05
   0.567519E-03
   0.135997E-01
   0.521405E-03
   0.740732E-04
   0.372374E-04
   0.128667E-02
   0.419189E-04
   0.425103E-04
   0.140002E-01
   0.187470E-02
   0.142636E-02
   0.133794E-02
   0.501097E-02
   0.292651E-02
   0.114475E-01
   0.124781E-02
   0.154030E-02
   0.523748E-02
   0.134668E-02
   0.547401E-03
   0.107890E-02
   0.146748E-02
   0.124102E-02
   0.126013E-01
   0.270523E-02
   0.225307E-02
   0.503073E-04
   0.378657E-04
   0.140961E-02
   0.139016E-01
   0.306619E-02
   0.302599E-02
   0.108866E-01
   0.357333E-05
   0.126717E-01
   0.370151E-05
   0.171156E-04
   0.404564E-05
   0.106233E-01
   0.186532E-02
   0.873384E-03
   0.119346E-02
   0.137845E-02
   0.134946E-02
   0.126056E-01
   0.834261E-03
   0.193619E-02
   0.600412E-03
   0.506634E-02
   0.134319E-04
   0.463206E-02
   0.292095E-02
   0.244920E-02
   0.138707E-01
   0.264252E-02
   0.563689E-04
   0.134656E-02
   0.147082E-03
   0.175623E-02
   0.847275E-03
   0.283200E-02
   0.128150E-02
   0.113028E-01
   0.199871E-02
   0.460545E-04
   0.107425E-01
   0.186092E-03
   0.141011E-02
   0.123541E-03
   0.707445E-03
   0.500745E-02
   0.133575E-02
   0.238889E-02
   0.113933E-01
   0.137598E-02
   0.133352E-02
   0.513276E-02
   0.148789E-02
   0.178957E-02
   0.127648E-02
   0.114050E-01
   0.197968E-01
   0.247834E-01
   0.573167E-02
   0.276953E-01
   0.995078E-02
   0.115768E-01
   0.111508E-01
   0.143263E-01
   0.990735E-02
   0.170479E-01
   0.146327E-01
   0.447475E-01
   0.430125E-01
   0.142026E-01
   0.753936E-02
   0.161895E-01
   0.114930E-01
   0.655357E-02
   0.278851E-01
   0.420916E-01
   0.155952E-01
   0.144025E-01
   0.145413E-02
   0.165724E-01
   0.235087E-04
   0.157709E-01
   0.207325E-03
   0.272245E-01
   0.137544E-01
   0.744608E-02
   0.738069E-02
   0.110960E-01
   0.205590E-04
   0.400779E-03
   0.455276E-01
   0.793867E-02
   0.677413E-02
   0.140770E-01
   0.141125E-01
   0.451012E-01
   0.754697E-02
   0.133439E-03
   0.158591E-01
   0.171885E-01
   0.173017E-04
   0.400869E-01
   0.435546E-01
   0.131266E-01
   0.145953E-01
   0.115430E-01
   0.734707E-02
   0.682825E-04
   0.453532E-01
   0.641508E-02
   0.509049E-02
   0.981500E-02
   0.277306E-01
   0.566688E-02
   0.101973E-01
   0.311475E-03
   0.132194E-01
   0.284693E-01
   0.422332E-01
   0.140118E-01
   0.127509E-01
   0.115725E-01
   0.170053E-01
   0.100722E-01
   0.428684E-01
   0.733833E-02
   0.142027E-01
   0.569106E-04
   0.918709E-05
   0.995432E-04
   0.456544E-01
   0.230898E-03
   0.527026E-02
   0.458080E-01
   0.596965E-02
   0.463748E-01
   0.601371E-02
   0.382080E-02
   0.738326E-02
   0.115047E-01
   0.422089E-04
   0.563054E-02
   0.436055E-01
   0.636266E-02
   0.995170E-02
   0.162614E-01
   0.113807E-01
   0.100800E-01
   0.438659E-01
   0.466007E-01
   0.119803E-01
   0.427071E-02
   0.161713E-01
   0.279108E-01
   0.112635E-01
   0.651223E-02
   0.420680E-01
   0.155811E-01
   0.147563E-01
   0.111865E-01
   0.277351E-01
   0.620085E-02
   0.430916E-01
   0.834995E-02
   0.918200E-02
   0.113737E-01
   0.302489E-04
   0.470746E-04
   0.461872E-01
   0.872973E-04
   0.465184E-01
   0.139930E-01
   0.421829E-01
   0.721029E-02
   0.172244E-01
   0.158312E-01
   0.144348E-03
   0.467438E-01
   0.456015E-02
   0.113769E-01
   0.129729E-01
   0.401788E-01
   0.144212E-01
   0.161804E-01
   0.995657E-02
   0.100322E-01
   0.122488E-01
   0.438874E-01
   0.415977E-02
   0.140375E-01
   0.451142E-01
   0.141857E-01
   0.756341E-02
   0.421795E-02
   0.422855E-01
   0.619836E-02
   0.244851E-03
   0.462065E-01
   0.159790E-01
   0.160966E-01
   0.115269E-03
   0.142022E-03
   0.273449E-01
   0.269508E-01
   0.574717E-02
   0.268282E-01
   0.101817E-01
   0.285701E-01
   0.147109E-01
   0.842897E-02
   0.284585E-01
   0.132534E-01
   0.296900E-03
   0.134597E-01
   0.422529E-01
   0.125689E-01
   0.156368E-01
   0.427432E-01
   0.146076E-01
   0.287200E-01
   0.839532E-02
   0.144025E-01
   0.276082E-01
   0.113833E-01
   0.629332E-02
   0.792368E-02
   0.432958E-01
   0.893898E-02
   0.126963E-01
   0.401806E-01
   0.135866E-01
   0.141772E-03
   0.282153E-01
   0.120479E-01
   0.271959E-01
   0.591343E-02
   0.106219E-01
   0.149000E-01
   0.287359E-01
   0.841726E-02
   0.137982E-01
   0.140226E-01
   0.310722E-04
   0.260332E-04
   0.161378E-01
   0.161950E-01
   0.457843E-01
   0.529181E-02
   0.595418E-02
   0.219915E-03
   0.595342E-02
   0.463860E-01
   0.379788E-02
   0.431954E-01
   0.472367E-02
   0.756213E-02
   0.451555E-01
   0.143298E-01
   0.173679E-01
   0.105881E-01
   0.106487E-01
   0.143873E-01
   0.435751E-01
   0.129247E-01
   0.420286E-01
   0.141328E-01
   0.726056E-02
   0.362370E-04
   0.171623E-01
   0.147344E-01
   0.444111E-02
   0.467700E-01
   0.113375E-01
   0.465096E-01
   0.963272E-04
   0.649768E-02
   0.456241E-01
   0.739579E-02
   0.288127E-03
   0.103998E-04
   0.105984E-01
   0.719643E-02
   0.716173E-02
   0.427064E-01
   0.156963E-01
   0.150362E-01
   0.841670E-02
   0.287406E-01
   0.144317E-01
   0.440733E-01
   0.901135E-02
   0.784244E-02
   0.287724E-01
   0.838508E-02
   0.748673E-02
   0.144099E-01
   0.106674E-01
   0.173205E-01
   0.455011E-01
   0.624137E-02
   0.528731E-02
   0.715908E-04
   0.727251E-02
   0.107156E-01
   0.422829E-01
   0.616248E-02
   0.422166E-02
   0.462118E-01
   0.252012E-03
   0.456042E-01
   0.185066E-03
   0.710866E-04
   0.989562E-05
   0.465007E-01
   0.404660E-02
   0.120557E-01
   0.165284E-01
   0.824558E-02
   0.103155E-01
   0.402315E-01
   0.130904E-01
   0.125593E-01
   0.120557E-01
   0.282105E-01
   0.133996E-03
   0.273548E-01
   0.144426E-01
   0.598888E-02
   0.435867E-01
   0.624828E-02
   0.191691E-04
   0.107170E-01
   0.717903E-02
   0.128462E-01
   0.142875E-01
   0.147756E-01
   0.171690E-01
   0.433350E-01
   0.467414E-02
   0.949240E-04
   0.459917E-01
   0.387756E-04
   0.103612E-01
   0.145240E-02
   0.125820E-01
   0.250798E-01
   0.145199E-01
   0.183182E-01
   0.441590E-01
   0.749472E-02
   0.900513E-02
   0.289067E-01
   0.827967E-02
   0.399024E-02
   0.977640E-02

SCALARS  vx_core_radius  double
LOOKUP_TABLE default
   0.100096E+00
   0.100106E+00
   0.100127E+00
   0.100064E+00
   0.100118E+00
   0.100095E+00
   0.100148E+00
   0.100147E+00
   0.100175E+00
   0.100123E+00
   0.100160E+00
   0.100090E+00
   0.100065E+00
   0.100067E+00
   0.100036E+00
   0.100026E+00
   0.100137E+00
   0.100093E+00
   0.100064E+00
   0.100120E+00
   0.100066E+00
   0.100035E+00
   0.100035E+00
   0.100009E+00
   0.100151E+00
   0.988509E-01
   0.100138E+00
   0.100014E+00
   0.100116E+00
   0.100093E+00
   0.100173E+00
   0.100180E+00
   0.100148E+00
   0.999421E-01
   0.100025E+00
   0.100064E+00
   0.100034E+00
   0.100035E+00
   0.100088E+00
   0.100034E+00
   0.100065E+00
   0.100021E+00
   0.100020E+00
   0.100142E+00
   0.100157E+00
   0.992754E-01
   0.100019E+00
   0.100019E+00
   0.100021E+00
   0.100025E+00
   0.100150E+00
   0.100176E+00
   0.999666E-01
   0.100020E+00
   0.999930E-01
   0.100004E+00
   0.100114E+00
   0.100121E+00
   0.100058E+00
   0.100091E+00
   0.100020E+00
   0.100093E+00
   0.100117E+00
   0.100018E+00
   0.100023E+00
   0.100019E+00
   0.100148E+00
   0.100160E+00
   0.100118E+00
   0.100069E+00
   0.100025E+00
   0.100036E+00
   0.998479E-01
   0.991888E-01
   0.100036E+00
   0.100020E+00
   0.100025E+00
   0.100027E+00
   0.100064E+00
   0.100027E+00
   0.100020E+00
   0.999883E-01
   0.999797E-01
   0.100174E+00
   0.100150E+00
   0.100013E+00
   0.100004E+00
   0.100018E+00
   0.999939E-01
   0.100114E+00
   0.100155E+00
   0.100142E+00
   0.100118E+00
   0.100047E+00
   0.100047E+00
   0.100042E+00
   0.999605E-01
   0.100138E+00
   0.100120E+00
   0.100095E+00
   0.100063E+00
   0.100066E+00
   0.100036E+00
   0.100034E+00
   0.100095E+00
   0.100121E+00
   0.100065E+00
   0.100046E+00
   0.999972E-01
   0.100007E+00
   0.100143E+00
   0.100112E+00
   0.100159E+00
   0.100047E+00
   0.100026E+00
   0.100020E+00
   0.100034E+00
   0.100066E+00
   0.100021E+00
   0.100157E+00
   0.100142E+00
   0.100013E+00
   0.100046E+00
   0.999612E-01
   0.100039E+00
   0.100021E+00
   0.100018E+00
   0.100025E+00
   0.100154E+00
   0.100113E+00
   0.100118E+00
   0.100040E+00
   0.100046E+00
   0.999606E-01
   0.100088E+00
   0.100064E+00
   0.100034E+00
   0.100021E+00
   0.999833E-01
   0.100018E+00
   0.999895E-01
   0.100024E+00
   0.100046E+00
   0.100137E+00
   0.100135E+00
   0.100020E+00
   0.100033E+00
   0.100058E+00
   0.100059E+00
   0.100057E+00
   0.100117E+00
   0.100091E+00
   0.100063E+00
   0.100069E+00
   0.100056E+00
   0.100117E+00
   0.100093E+00
   0.100018E+00
   0.100024E+00
   0.100018E+00
   0.100019E+00
   0.100036E+00
   0.100069E+00
   0.100035E+00
   0.100059E+00
   0.100057E+00
   0.100070E+00
   0.100122E+00
   0.100094E+00
   0.100064E+00
   0.999983E-01
   0.100046E+00
   0.100006E+00
   0.100019E+00
   0.100018E+00
   0.100024E+00
   0.100037E+00
   0.100060E+00
   0.100038E+00
   0.100116E+00
   0.100055E+00
   0.100088E+00
   0.100068E+00
   0.100063E+00
   0.100057E+00
   0.100094E+00
   0.100092E+00
   0.100047E+00
   0.100025E+00
   0.100047E+00
   0.100048E+00
   0.100064E+00
   0.100027E+00
   0.100027E+00
   0.100025E+00
   0.999886E-01
   0.100020E+00
   0.999792E-01
   0.100046E+00
   0.999643E-01
   0.100026E+00
   0.100064E+00
   0.100036E+00
   0.100049E+00
   0.100056E+00
   0.100060E+00
   0.100025E+00
   0.100018E+00
   0.100021E+00
   0.100066E+00
   0.100034E+00
   0.100021E+00
   0.100068E+00
   0.100050E+00
   0.100069E+00
   0.999601E-01
   0.100046E+00
   0.100039E+00
   0.100020E+00
   0.100027E+00
   0.100036E+00
   0.100064E+00
   0.100035E+00
   0.100028E+00
   0.993280E-01
   0.100055E+00
   0.100030E+00
   0.100030E+00
   0.100069E+00
   0.100036E+00
   0.100034E+00
   0.100057E+00
   0.100059E+00
   0.100071E+00
   0.100047E+00
   0.100007E+00
   0.999971E-01
   0.100063E+00
   0.100058E+00
   0.100025E+00
   0.100036E+00
   0.100060E+00
   0.100049E+00
   0.100020E+00
   0.999931E-01
   0.100003E+00
   0.998835E-01
   0.100030E+00
   0.100058E+00
   0.100019E+00
   0.999898E-01
   0.999834E-01
   0.100046E+00
   0.100024E+00
   0.100020E+00
   0.100024E+00
   0.999749E-01
   0.999422E-01
   0.100047E+00
   0.999584E-01
   0.100041E+00
   0.100047E+00
   0.100057E+00
   0.100057E+00
   0.100018E+00
   0.100024E+00
   0.100019E+00
   0.100038E+00
   0.100060E+00
   0.100040E+00
   0.100059E+00
   0.100070E+00
   0.100004E+00
   0.100017E+00
   0.999940E-01
   0.994303E-01
   0.100057E+00
   0.100037E+00
   0.100021E+00
   0.100025E+00
   0.100068E+00
   0.100050E+00
   0.100046E+00
   0.999639E-01
   0.100082E+00
   0.100047E+00
   0.990805E-01
   0.100058E+00
   0.100007E+00
   0.100038E+00
   0.100064E+00
   0.100051E+00
   0.100055E+00
   0.100045E+00
   0.999996E-01
   0.100005E+00
   0.100061E+00
   0.100062E+00
   0.999598E-01
   0.100049E+00
   0.100828E+00
   0.100958E+00
   0.100825E+00
   0.100501E+00
   0.100872E+00
   0.100619E+00
   0.101171E+00
   0.101145E+00
   0.101169E+00
   0.100851E+00
   0.101209E+00
   0.100628E+00
   0.100422E+00
   0.100427E+00
   0.100207E+00
   0.100168E+00
   0.100974E+00
   0.100600E+00
   0.100507E+00
   0.100836E+00
   0.100423E+00
   0.100184E+00
   0.100183E+00
   0.100679E+00
   0.101167E+00
   0.100907E+00
   0.100958E+00
   0.100378E+00
   0.100823E+00
   0.100627E+00
   0.101388E+00
   0.101389E+00
   0.101144E+00
   0.101018E+00
   0.100100E+00
   0.100422E+00
   0.100193E+00
   0.100194E+00
   0.100630E+00
   0.100195E+00
   0.100416E+00
   0.100156E+00
   0.100680E+00
   0.100974E+00
   0.101208E+00
   0.100902E+00
   0.100018E+00
   0.100015E+00
   0.999929E-01
   0.999844E-01
   0.101170E+00
   0.101389E+00
   0.101020E+00
   0.100017E+00
   0.999854E-01
   0.100000E+00
   0.100829E+00
   0.100871E+00
   0.100498E+00
   0.100617E+00
   0.100379E+00
   0.100630E+00
   0.100836E+00
   0.100021E+00
   0.999854E-01
   0.999926E-01
   0.101170E+00
   0.101208E+00
   0.100850E+00
   0.100426E+00
   0.100168E+00
   0.100206E+00
   0.101020E+00
   0.101018E+00
   0.999939E-01
   0.100016E+00
   0.100100E+00
   0.100192E+00
   0.100416E+00
   0.100192E+00
   0.100015E+00
   0.999877E-01
   0.999992E-01
   0.101389E+00
   0.101169E+00
   0.100903E+00
   0.100000E+00
   0.100019E+00
   0.999858E-01
   0.100831E+00
   0.101167E+00
   0.101144E+00
   0.100850E+00
   0.100010E+00
   0.100017E+00
   0.100016E+00
   0.999927E-01
   0.100975E+00
   0.100837E+00
   0.100600E+00
   0.100507E+00
   0.100423E+00
   0.100184E+00
   0.100183E+00
   0.100600E+00
   0.100872E+00
   0.100506E+00
   0.100017E+00
   0.999990E-01
   0.100004E+00
   0.101144E+00
   0.100906E+00
   0.999886E-01
   0.100020E+00
   0.999959E-01
   0.100015E+00
   0.100195E+00
   0.100423E+00
   0.100156E+00
   0.101208E+00
   0.100975E+00
   0.100680E+00
   0.100022E+00
   0.999972E-01
   0.100019E+00
   0.999939E-01
   0.100019E+00
   0.999857E-01
   0.101167E+00
   0.100829E+00
   0.100851E+00
   0.100017E+00
   0.100013E+00
   0.999940E-01
   0.100630E+00
   0.100416E+00
   0.100195E+00
   0.100156E+00
   0.999991E-01
   0.100020E+00
   0.999876E-01
   0.999923E-01
   0.100022E+00
   0.100959E+00
   0.100959E+00
   0.100681E+00
   0.999976E-01
   0.100024E+00
   0.100026E+00
   0.100496E+00
   0.100824E+00
   0.100616E+00
   0.100016E+00
   0.100031E+00
   0.100010E+00
   0.100836E+00
   0.100630E+00
   0.100379E+00
   0.999869E-01
   0.100019E+00
   0.999918E-01
   0.100184E+00
   0.100427E+00
   0.100183E+00
   0.100029E+00
   0.100006E+00
   0.100033E+00
   0.100871E+00
   0.100600E+00
   0.100507E+00
   0.100001E+00
   0.100015E+00
   0.100002E+00
   0.999920E-01
   0.100019E+00
   0.999865E-01
   0.999984E-01
   0.100029E+00
   0.100019E+00
   0.100825E+00
   0.100497E+00
   0.100617E+00
   0.100031E+00
   0.100017E+00
   0.100008E+00
   0.100627E+00
   0.100628E+00
   0.100377E+00
   0.100014E+00
   0.100039E+00
   0.100040E+00
   0.100416E+00
   0.100192E+00
   0.100192E+00
   0.100100E+00
   0.999881E-01
   0.100015E+00
   0.999988E-01
   0.100016E+00
   0.999978E-01
   0.100168E+00
   0.100422E+00
   0.100206E+00
   0.100041E+00
   0.100039E+00
   0.100041E+00
   0.999854E-01
   0.100018E+00
   0.999935E-01
   0.100423E+00
   0.100195E+00
   0.100157E+00
   0.100013E+00
   0.100041E+00
   0.100033E+00
   0.999974E-01
   0.100021E+00
   0.100018E+00
   0.100014E+00
   0.999960E-01
   0.100194E+00
   0.100422E+00
   0.100194E+00
   0.100101E+00
   0.100038E+00
   0.100039E+00
   0.100055E+00
   0.100055E+00
   0.100426E+00
   0.100183E+00
   0.100183E+00
   0.100007E+00
   0.100028E+00
   0.100031E+00
   0.100013E+00
   0.100004E+00
   0.100000E+00
   0.100017E+00
   0.100006E+00
   0.100167E+00
   0.100205E+00
   0.100039E+00
   0.100040E+00
   0.100015E+00
   0.999856E-01
   0.999985E-01
   0.100037E+00
   0.100053E+00
   0.100041E+00
   0.100018E+00
   0.999878E-01
   0.999988E-01
   0.100021E+00
   0.999921E-01
   0.100014E+00
   0.999947E-01
   0.100038E+00
   0.100039E+00
   0.100017E+00
   0.999938E-01
   0.100017E+00
   0.100039E+00
   0.100010E+00
   0.100038E+00
   0.100021E+00
   0.999872E-01
   0.999915E-01
   0.100019E+00
   0.100028E+00