# vtk DataFile Version 2.0
This file was created by Fortran
ASCII
DATASET UNSTRUCTURED_GRID
POINTS  1800  DOUBLE
  -0.446314E+00   0.232426E+00  -0.326775E+00
  -0.434757E+00   0.117077E+00  -0.396585E+00
  -0.361874E+00   0.117049E+00  -0.464055E+00
  -0.291969E+00   0.229310E+00  -0.471350E+00
  -0.383254E+00   0.325510E+00  -0.327353E+00
  -0.293507E+00   0.322227E+00  -0.412339E+00
  -0.546506E+00   0.216394E+00  -0.120437E+00
  -0.545956E+00   0.116663E+00  -0.219822E+00
  -0.500459E+00   0.117156E+00  -0.309540E+00
  -0.445414E+00   0.323715E+00  -0.238360E+00
  -0.501430E+00   0.306448E+00  -0.121067E+00
  -0.271503E+00   0.114006E+00  -0.522771E+00
  -0.181586E+00   0.113440E+00  -0.560498E+00
  -0.201663E+00   0.317249E+00  -0.467638E+00
  -0.869464E-01   0.294764E+00  -0.515320E+00
  -0.865110E-01   0.207939E+00  -0.556127E+00
  -0.433701E+00   0.397101E+00  -0.119224E+00
  -0.291735E+00   0.413160E+00  -0.322784E+00
  -0.287189E+00   0.473217E+00  -0.231491E+00
  -0.360648E+00   0.464477E+00  -0.119139E+00
  -0.198058E+00   0.469968E+00  -0.316074E+00
  -0.863933E-01   0.385152E+00  -0.451879E+00
  -0.863708E-01   0.452884E+00  -0.383974E+00
  -0.408044E+00  -0.984397E-05  -0.439887E+00
  -0.500480E+00  -0.117196E+00  -0.309491E+00
  -0.527785E+00  -0.174201E-04  -0.285382E+00
  -0.434508E+00  -0.117184E+00  -0.396826E+00
  -0.247675E+00  -0.116575E-04  -0.546495E+00
  -0.361593E+00  -0.117110E+00  -0.464259E+00
  -0.271426E+00  -0.114002E+00  -0.522811E+00
  -0.583035E+00  -0.100180E+00  -0.100170E+00
  -0.583036E+00   0.100172E+00  -0.100170E+00
  -0.545974E+00  -0.116681E+00  -0.219767E+00
  -0.591802E+00  -0.471494E-05  -0.988450E-01
  -0.646763E-01  -0.197807E-04  -0.590747E+00
  -0.181499E+00  -0.113471E+00  -0.560520E+00
  -0.659242E-01   0.950472E-01  -0.588744E+00
  -0.659112E-01  -0.950727E-01  -0.588742E+00
  -0.268132E+00   0.524490E+00  -0.114084E+00
  -0.832696E-01   0.516110E+00  -0.294444E+00
  -0.177990E+00   0.561654E+00  -0.113418E+00
  -0.828564E-01   0.556781E+00  -0.207677E+00
  -0.408074E+00   0.439859E+00  -0.576838E-06
  -0.433702E+00   0.397101E+00   0.119222E+00
  -0.501427E+00   0.306452E+00   0.121069E+00
  -0.527791E+00   0.285371E+00   0.563570E-06
   0.287810E-01   0.420347E+00  -0.420357E+00
   0.287839E-01   0.269886E+00  -0.529505E+00
   0.140823E+00   0.290290E+00  -0.505866E+00
   0.140256E+00   0.377927E+00  -0.444409E+00
  -0.546503E+00   0.216398E+00   0.120441E+00
  -0.583035E+00   0.100175E+00   0.100174E+00
  -0.591801E+00   0.988485E-01   0.104044E-05
   0.285974E-01   0.929747E-01  -0.586997E+00
   0.140166E+00   0.203877E+00  -0.546615E+00
   0.121290E+00   0.947382E-01  -0.579925E+00
  -0.446107E+00  -0.232536E+00  -0.326979E+00
  -0.382993E+00  -0.325588E+00  -0.327580E+00
  -0.291596E+00  -0.229365E+00  -0.471554E+00
  -0.293204E+00  -0.322273E+00  -0.412518E+00
  -0.247725E+00   0.546473E+00  -0.234082E-06
  -0.268132E+00   0.524491E+00   0.114081E+00
  -0.360649E+00   0.464477E+00   0.119136E+00
   0.287800E-01   0.529481E+00  -0.269872E+00
   0.140241E+00   0.445375E+00  -0.376794E+00
   0.137454E+00   0.506903E+00  -0.290096E+00
  -0.546514E+00  -0.216406E+00  -0.120377E+00
  -0.501438E+00  -0.306459E+00  -0.121006E+00
  -0.445429E+00  -0.323734E+00  -0.238304E+00
  -0.201573E+00  -0.317265E+00  -0.467665E+00
  -0.864096E-01  -0.207933E+00  -0.556145E+00
  -0.868416E-01  -0.294766E+00  -0.515337E+00
  -0.591801E+00  -0.988516E-01   0.969012E-06
  -0.591802E+00  -0.148628E-05   0.988481E-01
   0.118843E+00  -0.294674E-05  -0.584075E+00
   0.286098E-01  -0.929781E-01  -0.586997E+00
  -0.647018E-01   0.590729E+00   0.125935E-05
  -0.659619E-01   0.588738E+00   0.950582E-01
  -0.177990E+00   0.561655E+00   0.113417E+00
  -0.659668E-01   0.588738E+00  -0.950598E-01
   0.285896E-01   0.586985E+00  -0.929743E-01
   0.136769E+00   0.547529E+00  -0.203730E+00
   0.121276E+00   0.579928E+00  -0.947371E-01
  -0.583035E+00  -0.100177E+00   0.100174E+00
  -0.546514E+00  -0.216404E+00   0.120379E+00
  -0.527791E+00  -0.285371E+00   0.191812E-05
   0.121303E+00  -0.947295E-01  -0.579924E+00
   0.288124E-01  -0.269879E+00  -0.529499E+00
   0.140142E+00  -0.203871E+00  -0.546623E+00
  -0.445887E+00   0.232487E+00   0.327314E+00
  -0.500458E+00   0.117173E+00   0.309535E+00
  -0.545953E+00   0.116670E+00   0.219826E+00
  -0.445411E+00   0.323719E+00   0.238359E+00
   0.247758E+00   0.303731E+00  -0.447888E+00
   0.231210E+00   0.109485E+00  -0.542729E+00
   0.312829E+00   0.109872E+00  -0.500066E+00
   0.327969E+00   0.217405E+00  -0.447698E+00
  -0.433701E+00  -0.397102E+00  -0.119221E+00
  -0.360647E+00  -0.464479E+00  -0.119136E+00
  -0.291728E+00  -0.413169E+00  -0.322779E+00
  -0.287190E+00  -0.473218E+00  -0.231488E+00
  -0.198052E+00  -0.469974E+00  -0.316070E+00
  -0.863705E-01  -0.385161E+00  -0.451875E+00
  -0.863618E-01  -0.452890E+00  -0.383969E+00
  -0.291728E+00   0.413169E+00   0.322779E+00
  -0.382780E+00   0.325556E+00   0.327860E+00
  -0.287190E+00   0.473219E+00   0.231487E+00
   0.244561E+00   0.450414E+00  -0.302758E+00
   0.331839E+00   0.308367E+00  -0.393437E+00
   0.330282E+00   0.394300E+00  -0.308936E+00
  -0.545974E+00  -0.116676E+00   0.219770E+00
  -0.527788E+00  -0.252602E-06   0.285377E+00
   0.288907E+00   0.966441E-05  -0.522355E+00
   0.231179E+00  -0.109479E+00  -0.542744E+00
   0.118840E+00   0.584051E+00   0.269225E-06
   0.285944E-01   0.586985E+00   0.929743E-01
  -0.832667E-01   0.516111E+00   0.294442E+00
  -0.198049E+00   0.469976E+00   0.316069E+00
  -0.828513E-01   0.556783E+00   0.207673E+00
  -0.501439E+00  -0.306457E+00   0.121009E+00
  -0.433701E+00  -0.397101E+00   0.119224E+00
  -0.408074E+00  -0.439859E+00   0.224894E-05
   0.227925E+00   0.544107E+00  -0.109536E+00
   0.323534E+00   0.449345E+00  -0.219365E+00
   0.309822E+00   0.501902E+00  -0.110021E+00
   0.140803E+00  -0.290291E+00  -0.505871E+00
   0.287979E-01  -0.420348E+00  -0.420353E+00
   0.140281E+00  -0.377927E+00  -0.444401E+00
  -0.500487E+00  -0.117180E+00   0.309486E+00
  -0.446108E+00  -0.232536E+00   0.326978E+00
  -0.445430E+00  -0.323732E+00   0.238306E+00
   0.312804E+00  -0.109854E+00  -0.500086E+00
   0.247726E+00  -0.303720E+00  -0.447876E+00
   0.327722E+00  -0.217445E+00  -0.447912E+00
  -0.268133E+00  -0.524490E+00  -0.114082E+00
  -0.177992E+00  -0.561654E+00  -0.113416E+00
  -0.832696E-01  -0.516110E+00  -0.294443E+00
  -0.828589E-01  -0.556781E+00  -0.207676E+00
   0.121281E+00   0.579928E+00   0.947332E-01
   0.287869E-01   0.529485E+00   0.269872E+00
   0.136778E+00   0.547528E+00   0.203726E+00
   0.288910E+00   0.522304E+00  -0.412740E-05
   0.227930E+00   0.544105E+00   0.109532E+00
  -0.434516E+00  -0.117172E+00   0.396820E+00
  -0.434286E+00   0.117112E+00   0.397090E+00
  -0.408057E+00  -0.857899E-06   0.439874E+00
   0.430722E+00   0.170232E-04  -0.412699E+00
   0.393462E+00   0.110627E+00  -0.439260E+00
   0.393232E+00  -0.110651E+00  -0.439459E+00
  -0.291369E+00   0.229273E+00   0.471739E+00
  -0.361332E+00   0.117043E+00   0.464478E+00
  -0.292944E+00   0.322204E+00   0.412757E+00
   0.412071E+00   0.307508E+00  -0.309252E+00
   0.456826E+00   0.110710E+00  -0.372898E+00
   0.462594E+00   0.216755E+00  -0.305229E+00
  -0.360647E+00  -0.464478E+00   0.119138E+00
  -0.268131E+00  -0.524491E+00   0.114085E+00
  -0.247725E+00  -0.546473E+00   0.248723E-05
   0.140250E+00  -0.445376E+00  -0.376790E+00
   0.287797E-01  -0.529483E+00  -0.269873E+00
   0.137451E+00  -0.506904E+00  -0.290095E+00
  -0.863734E-01   0.385161E+00   0.451875E+00
  -0.201627E+00   0.317256E+00   0.467649E+00
  -0.863593E-01   0.452890E+00   0.383970E+00
   0.392455E+00   0.439659E+00  -0.112603E+00
   0.461356E+00   0.302013E+00  -0.222025E+00
   0.455975E+00   0.373341E+00  -0.112710E+00
  -0.382994E+00  -0.325589E+00   0.327579E+00
  -0.291726E+00  -0.413167E+00   0.322783E+00
  -0.287188E+00  -0.473219E+00   0.231490E+00
   0.331609E+00  -0.308384E+00  -0.393617E+00
   0.244564E+00  -0.450410E+00  -0.302748E+00
   0.330292E+00  -0.394301E+00  -0.308923E+00
   0.137459E+00   0.506902E+00   0.290095E+00
   0.287953E-01   0.420347E+00   0.420353E+00
   0.140249E+00   0.445375E+00   0.376791E+00
   0.430771E+00   0.412639E+00  -0.717476E-05
   0.392459E+00   0.439658E+00   0.112591E+00
   0.309826E+00   0.501901E+00   0.110013E+00
  -0.361602E+00  -0.117117E+00   0.464249E+00
  -0.291595E+00  -0.229370E+00   0.471553E+00
  -0.293202E+00  -0.322274E+00   0.412519E+00
   0.456629E+00  -0.110743E+00  -0.373130E+00
   0.411867E+00  -0.307562E+00  -0.309470E+00
   0.462394E+00  -0.216801E+00  -0.305382E+00
  -0.271434E+00  -0.114009E+00   0.522806E+00
  -0.271486E+00   0.114000E+00   0.522781E+00
  -0.247699E+00  -0.410188E-05   0.546485E+00
   0.532745E+00   0.138936E-04  -0.264760E+00
   0.514003E+00   0.109512E+00  -0.289496E+00
   0.514035E+00  -0.109499E+00  -0.289444E+00
  -0.177989E+00  -0.561654E+00   0.113420E+00
  -0.659631E-01  -0.588738E+00   0.950608E-01
  -0.659684E-01  -0.588738E+00  -0.950585E-01
  -0.647034E-01  -0.590729E+00   0.351616E-05
   0.136765E+00  -0.547531E+00  -0.203729E+00
   0.285871E-01  -0.586984E+00  -0.929732E-01
   0.121273E+00  -0.579929E+00  -0.947359E-01
   0.244571E+00   0.450409E+00   0.302750E+00
   0.323543E+00   0.449344E+00   0.219358E+00
  -0.864770E-01   0.207929E+00   0.556136E+00
  -0.181570E+00   0.113450E+00   0.560501E+00
  -0.869059E-01   0.294761E+00   0.515329E+00
   0.514895E+00   0.286503E+00  -0.113136E+00
   0.553093E+00   0.109222E+00  -0.205325E+00
   0.553589E+00   0.202055E+00  -0.112753E+00
   0.140276E+00   0.377926E+00   0.444403E+00
   0.288013E-01   0.269876E+00   0.529497E+00
   0.140848E+00   0.290285E+00   0.505862E+00
  -0.198047E+00  -0.469973E+00   0.316074E+00
[...]
POINT_DATA  1800
SCALARS  vx_strength  double
LOOKUP_TABLE default
   0.200124E-02
   0.279492E-02
   0.494785E-02
   0.411947E-04
   0.389156E-02
   0.150224E-02
   0.183459E-02
   0.177470E-02
   0.321098E-02
   0.201640E-02
   0.338098E-02
   0.756245E-03
   0.571424E-02
   0.581144E-02
   0.237459E-02
   0.218301E-02
   0.279895E-02
   0.164828E-02
   0.230900E-03
   0.495906E-02
   0.562823E-02
   0.151235E-02
   0.152716E-02
   0.645285E-05
   0.326379E-02
   0.180588E-04
   0.273443E-02
   0.178968E-03
   0.478731E-02
   0.115484E-02
   0.172835E-02
   0.172250E-02
   0.179189E-02
   0.301563E-06
   0.363546E-04
   0.554699E-02
   0.189895E-02
   0.190796E-02
   0.100797E-02
   0.241040E-02
   0.573817E-02
   0.242381E-02
   0.405158E-05
   0.279058E-02
   0.337349E-02
   0.764610E-05
   0.364938E-02
   0.440171E-02
   0.518068E-02
   0.458436E-02
   0.183730E-02
   0.174223E-02
   0.864804E-05
   0.397327E-02
   0.440544E-02
   0.484238E-02
   0.194538E-02
   0.387514E-02
   0.577426E-04
   0.139295E-02
   0.298799E-04
   0.105691E-02
   0.495687E-02
   0.460668E-02
   0.456945E-02
   0.529952E-02
   0.183537E-02
   0.335868E-02
   0.202587E-02
   0.597090E-02
   0.229017E-02
   0.249234E-02
   0.304401E-05
   0.530247E-05
   0.152436E-04
   0.395216E-02
   0.310603E-04
   0.222231E-02
   0.567237E-02
   0.229955E-02
   0.410279E-02
   0.448733E-02
   0.493663E-02
   0.173719E-02
   0.183211E-02
   0.689037E-06
   0.488433E-02
   0.445768E-02
   0.443738E-02
   0.194563E-02
   0.329202E-02
   0.179197E-02
   0.203293E-02
   0.737005E-03
   0.578281E-03
   0.245502E-02
   0.199429E-02
   0.279716E-02
   0.495983E-02
   0.168665E-02
   0.257698E-03
   0.561337E-02
   0.157934E-02
   0.154023E-02
   0.168699E-02
   0.385665E-02
   0.251242E-03
   0.100713E-02
   0.318515E-02
   0.340601E-02
   0.179531E-02
   0.455671E-05
   0.298736E-04
   0.632924E-03
   0.128159E-04
   0.408454E-02
   0.244003E-02
   0.562539E-02
   0.240856E-02
   0.337244E-02
   0.278717E-02
   0.291610E-05
   0.713128E-03
   0.228568E-02
   0.259563E-02
   0.519976E-02
   0.366908E-02
   0.460077E-02
   0.325949E-02
   0.195467E-02
   0.202687E-02
   0.250494E-02
   0.738457E-03
   0.199452E-02
   0.101688E-02
   0.573079E-02
   0.242003E-02
   0.241990E-02
   0.497337E-02
   0.463119E-02
   0.451930E-02
   0.135875E-04
   0.746041E-03
   0.271503E-02
   0.269225E-02
   0.112738E-05
   0.556756E-05
   0.326973E-02
   0.325197E-02
   0.718161E-04
   0.480777E-02
   0.142354E-02
   0.306956E-02
   0.245974E-02
   0.151894E-02
   0.495658E-02
   0.105732E-02
   0.298516E-04
   0.457428E-02
   0.462248E-02
   0.530331E-02
   0.158342E-02
   0.595145E-02
   0.154862E-02
   0.333211E-02
   0.160937E-02
   0.255121E-02
   0.385948E-02
   0.168228E-02
   0.252441E-03
   0.317922E-02
   0.987203E-03
   0.339270E-02
   0.531035E-02
   0.366737E-02
   0.457803E-02
   0.248528E-05
   0.332198E-02
   0.262150E-02
   0.481172E-02
   0.767992E-04
   0.142510E-02
   0.247982E-02
   0.306985E-02
   0.153366E-02
   0.113124E-02
   0.109624E-02
   0.218962E-04
   0.382150E-05
   0.379791E-02
   0.379444E-02
   0.567763E-02
   0.222877E-02
   0.229040E-02
   0.302498E-04
   0.450314E-02
   0.410325E-02
   0.493803E-02
   0.100766E-02
   0.229764E-02
   0.229148E-02
   0.559572E-02
   0.249294E-02
   0.391698E-02
   0.226583E-02
   0.229904E-02
   0.459688E-02
   0.444549E-02
   0.518764E-02
   0.563634E-02
   0.246276E-02
   0.242113E-02
   0.539195E-06
   0.391091E-02
   0.255947E-02
   0.227556E-02
   0.712536E-03
   0.259287E-02
   0.408804E-02
   0.150366E-04
   0.189702E-02
   0.557589E-02
   0.192559E-02
   0.265651E-04
   0.748568E-06
   0.225762E-02
   0.226441E-02
   0.226925E-02
   0.596130E-02
   0.157577E-02
   0.153735E-02
   0.161239E-02
   0.333226E-02
   0.254962E-02
   0.732349E-03
   0.342101E-02
   0.319079E-02
   0.305965E-02
   0.161500E-02
   0.229966E-02
   0.250679E-02
   0.229383E-02
   0.391415E-02
   0.394439E-02
   0.442701E-02
   0.485912E-02
   0.179154E-05
   0.225761E-02
   0.230357E-02
   0.464863E-02
   0.453181E-02
   0.497623E-02
   0.743499E-03
   0.131517E-04
   0.392418E-02
   0.635208E-05
   0.328370E-05
   0.743589E-06
   0.616080E-03
   0.200031E-02
   0.249323E-02
   0.375548E-02
   0.153415E-02
   0.229236E-02
   0.366452E-02
   0.458014E-02
   0.530591E-02
   0.261584E-02
   0.332654E-02
   0.804849E-06
   0.326208E-02
   0.247399E-02
   0.488396E-02
   0.446656E-02
   0.446395E-02
   0.132715E-04
   0.235229E-02
   0.221806E-02
   0.520803E-02
   0.460796E-02
   0.253954E-02
   0.390739E-02
   0.983895E-03
   0.228678E-02
   0.329805E-04
   0.670414E-03
   0.210735E-05
   0.232850E-02
   0.105150E-05
   0.253996E-02
   0.325998E-02
   0.377228E-02
   0.245847E-02
   0.739301E-03
   0.318977E-02
   0.339960E-02
   0.304873E-02
   0.162243E-02
   0.200688E-02
   0.154372E-02
   0.195811E-02
   0.285675E-02
   0.507250E-02
   0.157681E-03
   0.440488E-02
   0.990790E-03
   0.191616E-02
   0.181935E-02
   0.341149E-02
   0.206163E-02
   0.343708E-02
   0.693393E-03
   0.662049E-02
   0.674555E-02
   0.324139E-02
   0.301845E-02
   0.287530E-02
   0.111404E-02
   0.598722E-04
   0.524064E-02
   0.654866E-02
   0.225187E-02
   0.221711E-02
   0.564614E-04
   0.334042E-02
   0.542756E-04
   0.278645E-02
   0.229317E-03
   0.509110E-02
   0.105785E-02
   0.179837E-02
   0.179334E-02
   0.187620E-02
   0.411090E-05
   0.547652E-04
   0.633151E-02
   0.241691E-02
   0.233180E-02
   0.902981E-03
   0.309860E-02
   0.653808E-02
   0.305843E-02
   0.705706E-06
   0.285748E-02
   0.344233E-02
   0.104961E-04
   0.389836E-02
   0.475596E-02
   0.525721E-02
   0.459109E-02
   0.191783E-02
   0.181756E-02
   0.818333E-05
   0.399845E-02
   0.438288E-02
   0.477036E-02
   0.194537E-02
   0.442818E-02
   0.165789E-03
   0.931199E-03
   0.225001E-04
   0.921316E-03
   0.525173E-02
   0.477988E-02
   0.456636E-02
   0.522753E-02
   0.191891E-02
   0.343982E-02
   0.202691E-02
   0.683075E-02
   0.304984E-02
   0.332474E-02
   0.393820E-05
   0.835604E-05
   0.103450E-04
   0.393334E-02
   0.512486E-04
   0.260899E-02
   0.649052E-02
   0.270378E-02
   0.409461E-02
   0.433161E-02
   0.482924E-02
   0.181060E-02
   0.192026E-02
   0.588898E-05
   0.475873E-02
   0.479183E-02
   0.438763E-02
   0.195133E-02
   0.337184E-02
   0.185866E-02
   0.203894E-02
   0.464728E-03
   0.799638E-05
   0.211290E-02
   0.189861E-02
   0.285984E-02
   0.524881E-02
   0.117157E-02
   0.203590E-04
   0.651512E-02
   0.228549E-02
   0.223152E-02
   0.116710E-02
   0.440993E-02
   0.354328E-04
   0.718496E-03
   0.322866E-02
   0.343754E-02
   0.186177E-02
   0.604219E-05
   0.171572E-04
   0.154914E-04
   0.132856E-04
   0.403007E-02
   0.311395E-02
   0.653045E-02
   0.303392E-02
   0.343958E-02
   0.285593E-02
   0.274233E-05
   0.104334E-03
   0.224721E-02
   0.231730E-02
   0.526621E-02
   0.390955E-02
   0.461474E-02
   0.333956E-02
   0.195948E-02
   0.202641E-02
   0.215804E-02
   0.454871E-03
   0.189633E-02
   0.900164E-03
   0.653227E-02
   0.310004E-02
   0.304494E-02
   0.482042E-02
   0.478395E-02
   0.434933E-02
   0.634008E-05
   0.120514E-03
   0.278703E-02
   0.275982E-02
   0.399155E-05
   0.101403E-04
   0.386461E-02
   0.382860E-02
   0.138376E-03
   0.508379E-02
   0.959233E-03
   0.355790E-02
   0.216138E-02
   0.122247E-02
   0.524958E-02
   0.927647E-03
   0.233246E-04
   0.457768E-02
   0.478651E-02
   0.524682E-02
   0.228336E-02
   0.680926E-02
   0.223803E-02
   0.383612E-02
   0.129644E-02
   0.225810E-02
   0.441670E-02
   0.116941E-02
   0.301230E-04
   0.320020E-02
   0.711770E-03
   0.343034E-02
   0.523228E-02
   0.391068E-02
   0.457540E-02
   0.426284E-05
   0.382005E-02
   0.233701E-02
   0.508716E-02
   0.136143E-03
   0.957615E-03
   0.219105E-02
   0.355901E-02
   0.124548E-02
   0.105057E-02
   0.102261E-02
   0.210614E-04
   0.294008E-07
   0.393109E-02
   0.391821E-02
   0.648748E-02
   0.261098E-02
   0.269781E-02
   0.486515E-04
   0.435516E-02
   0.409256E-02
   0.483465E-02
   0.721222E-03
   0.226360E-02
   0.305417E-02
   0.637489E-02
   0.332420E-02
   0.408061E-02
   0.215780E-02
   0.217181E-02
   0.461194E-02
   0.479223E-02
   0.526382E-02
   0.653423E-02
   0.313052E-02
   0.304130E-02
   0.342318E-05
   0.406526E-02
   0.227359E-02
   0.224196E-02
   0.105263E-03
   0.231281E-02
   0.403225E-02
   0.116618E-04
   0.233419E-02
   0.635764E-02
   0.236053E-02
   0.262938E-04
   0.242573E-05
   0.215525E-02
   0.225996E-02
   0.226599E-02
   0.681322E-02
   0.226949E-02
   0.222909E-02
   0.130278E-02
   0.383861E-02
   0.225904E-02
   0.460949E-03
   0.345365E-02
   0.322622E-02
   0.354847E-02
   0.130618E-02
   0.306637E-02
   0.333709E-02
   0.217070E-02
   0.407781E-02
   0.395972E-02
   0.439082E-02
   0.477061E-02
   0.865152E-06
   0.225031E-02
   0.218368E-02
   0.480500E-02
   0.437469E-02
   0.482966E-02
   0.122052E-03
   0.571931E-05
   0.392561E-02
   0.781455E-05
   0.119703E-04
   0.867947E-05
   0.211945E-04
   0.190799E-02
   0.215906E-02
   0.388022E-02
   0.123829E-02
   0.219479E-02
   0.390499E-02
   0.458229E-02
   0.525031E-02
   0.232813E-02
   0.382680E-02
   0.358609E-05
   0.383637E-02
   0.218535E-02
   0.476078E-02
   0.480184E-02
   0.439733E-02
   0.131912E-04
   0.224553E-02
   0.218429E-02
   0.527398E-02
   0.463041E-02
   0.225598E-02
   0.406760E-02
   0.714315E-03
   0.225671E-02
   0.248544E-04
   0.525788E-04
   0.224317E-04
   0.221438E-02
   0.196833E-04
   0.222297E-02
   0.378006E-02
   0.391821E-02
   0.220779E-02
   0.462023E-03
   0.320392E-02
   0.343942E-02
   0.354723E-02
   0.130698E-02
   0.192500E-02
   0.125409E-02
   0.197711E-02
   0.311679E-02
   0.515177E-02
   0.250666E-03
   0.467925E-02
   0.922675E-03
   0.212818E-02
   0.199880E-02
   0.360547E-02
   0.218679E-02
   0.347558E-02
   0.118905E-02
   0.719031E-02
   0.775432E-02
   0.451075E-02
   0.418247E-02
   0.329783E-02
   0.103996E-02
   0.284599E-03
   0.542926E-02
   0.755856E-02
   0.331056E-02
   0.327175E-02
   0.521101E-04
   0.337503E-02
   0.695245E-04
   0.318511E-02
   0.189235E-03
   0.527402E-02
   0.138492E-02
   0.181138E-02
   0.182365E-02
   0.208427E-02
   0.837300E-05
   0.323472E-04
   0.690450E-02
   0.310730E-02
   0.300120E-02
   0.120788E-02
   0.431235E-02
   0.717293E-02
   0.418706E-02
   0.758885E-05
   0.329976E-02
   0.347278E-02
   0.811854E-05
   0.530365E-02
   0.638327E-02
   0.646037E-02
   0.555948E-02
   0.212740E-02
   0.183680E-02
   0.676227E-06
   0.478368E-02
   0.549843E-02
   0.544329E-02
   0.202674E-02
   0.475164E-02
   0.349419E-03
   0.875002E-03
   0.789235E-05
   0.121051E-02
   0.542715E-02
   0.628504E-02
   0.550728E-02
   0.624390E-02
   0.212831E-02
   0.348503E-02
   0.210658E-02
   0.779080E-02
   0.418953E-02
   0.456120E-02
   0.339645E-05
   0.565277E-05
   0.124562E-04
   0.473887E-02
   0.315866E-04
   0.335400E-02
   0.716245E-02
   0.339913E-02
   0.485684E-02
   0.527284E-02
   0.547422E-02
   0.182852E-02
   0.213190E-02
   0.117361E-04
   0.543109E-02
   0.641121E-02
   0.547165E-02
   0.203419E-02
   0.342248E-02
   0.204685E-02
   0.212678E-02
   0.152058E-02
   0.596393E-03
   0.224861E-02
   0.252772E-02
   0.328403E-02
   0.543973E-02
   0.109222E-02
   0.255800E-03
   0.753403E-02
   0.329697E-02
   0.328863E-02
   0.107525E-02
   0.473653E-02
   0.273827E-03
   0.178231E-02
   0.402942E-02
   0.425663E-02
   0.205589E-02
   0.725962E-05
   0.882256E-05
   0.590090E-03
   0.145139E-04
   0.481074E-02
   0.433047E-02
   0.755422E-02
   0.418799E-02
   0.346898E-02
   0.329720E-02
   0.103000E-04
   0.627482E-03
   0.297741E-02
   0.245290E-02
   0.646457E-02
   0.529887E-02
   0.558528E-02
   0.338508E-02
   0.203836E-02
   0.211046E-02
   0.227787E-02
   0.151282E-02
   0.251577E-02
   0.120165E-02
   0.717280E-02
   0.430211E-02
   0.416775E-02
   0.546099E-02
   0.628980E-02
   0.528295E-02
   0.322497E-05
   0.629692E-03
   0.321243E-02
   0.317264E-02
   0.113456E-04
   0.105900E-04
   0.373854E-02
   0.368359E-02
   0.327177E-03
   0.525897E-02
   0.898516E-03
   0.315368E-02
   0.165385E-02
   0.978486E-03
   0.542708E-02
   0.121831E-02
   0.127654E-04
   0.550379E-02
   0.628059E-02
   0.626864E-02
   0.329382E-02
   0.776846E-02
   0.329241E-02
   0.362372E-02
   0.105046E-02
   0.177343E-02
   0.475240E-02
   0.107772E-02
   0.264629E-03
   0.397455E-02
   0.179405E-02
   0.425961E-02
   0.625228E-02
   0.530223E-02
   0.550379E-02
   0.328581E-05
   0.360491E-02
   0.246367E-02
   0.524742E-02
   0.329315E-03
   0.884943E-03
   0.169126E-02
   0.315396E-02
   0.100539E-02
   0.141587E-02
   0.138847E-02
   0.162044E-04
   0.228952E-05
   0.387645E-02
   0.385211E-02
   0.715375E-02
   0.334756E-02
   0.339624E-02
   0.319464E-04
   0.529186E-02
   0.485497E-02
   0.548039E-02
   0.179029E-02
   0.299465E-02
   0.417726E-02
   0.690302E-02
   0.454454E-02
   0.403621E-02
   0.196069E-02
   0.195139E-02
   0.558116E-02
   0.640197E-02
   0.646008E-02
   0.755176E-02
   0.432962E-02
   0.417813E-02
   0.564171E-05
   0.401178E-02
   0.179324E-02
   0.297904E-02
   0.632419E-03
   0.244935E-02
   0.480932E-02
   0.137037E-04
   0.300742E-02
   0.688430E-02
   0.300500E-02
   0.309236E-06
   0.564876E-05
   0.196495E-02
   0.224442E-02
   0.225044E-02
   0.776582E-02
   0.327111E-02
   0.328729E-02
   0.105560E-02
   0.362467E-02
   0.177670E-02
   0.152183E-02
   0.427427E-02
   0.401510E-02
   0.314330E-02
   0.106186E-02
   0.420722E-02
   0.456686E-02
   0.195410E-02
   0.403284E-02
   0.475371E-02
   0.547777E-02
   0.544879E-02
   0.206798E-05
   0.223344E-02
   0.197091E-02
   0.629868E-02
   0.530629E-02
   0.546853E-02
   0.634513E-03
   0.349479E-05
   0.475694E-02
   0.292227E-05
   0.173156E-04
   0.137348E-04
   0.614404E-03
   0.253527E-02
   0.229836E-02
   0.382130E-02
   0.993194E-03
   0.200415E-02
   0.528432E-02
   0.549685E-02
   0.627733E-02
   0.245228E-02
   0.361116E-02
   0.468378E-05
   0.368522E-02
   0.169084E-02
   0.545265E-02
   0.640986E-02
   0.545455E-02
   0.813334E-05
   0.203963E-02
   0.214229E-02
   0.646614E-02
   0.560055E-02
   0.178246E-02
   0.402187E-02
   0.180398E-02
   0.299566E-02
   0.250988E-05
   0.617223E-03
   0.614775E-04
   0.199179E-02
   0.536556E-04
   0.236763E-02
   0.355100E-02
   0.387040E-02
   0.179641E-02
   0.151781E-02
   0.396198E-02
   0.427415E-02
   0.316127E-02
   0.104614E-02
   0.255276E-02
   0.102362E-02
   0.230395E-02
   0.355069E-02
   0.603208E-02
   0.512566E-03
   0.551472E-02
   0.190618E-02
   0.252182E-02
   0.242423E-02
   0.409574E-02
   0.264374E-02
   0.388413E-02
   0.252974E-02
   0.821905E-02
   0.868267E-02
   0.370686E-02
   0.385884E-02
   0.396275E-02
   0.213351E-02
   0.510075E-03
   0.635965E-02
   0.841957E-02
   0.264533E-02
   0.267864E-02
   0.113370E-04
   0.375643E-02
   0.263495E-04
   0.386185E-02
   0.110747E-03
   0.611035E-02
   0.257910E-02
   0.189745E-02
   0.194002E-02
   0.248252E-02
   0.904956E-05
   0.826477E-05
   0.800020E-02
   0.252274E-02
   0.244022E-02
   0.236762E-02
   0.368000E-02
   0.841674E-02
   0.410642E-02
   0.145301E-04
   0.400536E-02
   0.386854E-02
   0.672362E-05
   0.732364E-02
   0.849234E-02
   0.655484E-02
   0.544249E-02
   0.252728E-02
   0.192029E-02
   0.304042E-05
   0.636866E-02
   0.595983E-02
   0.544947E-02
   0.243482E-02
   0.564169E-02
   0.336674E-03
   0.181853E-02
   0.664379E-05
   0.239714E-02
   0.632117E-02
   0.842653E-02
   0.541600E-02
   0.632493E-02
   0.252234E-02
   0.390170E-02
   0.252287E-02
   0.871216E-02
   0.388857E-02
   0.375327E-02
   0.805202E-05
   0.204288E-05
   0.918748E-05
   0.638611E-02
   0.248629E-05
   0.299868E-02
   0.841102E-02
   0.299251E-02
   0.648737E-02
   0.576592E-02
   0.564112E-02
   0.191240E-02
   0.253505E-02
   0.127926E-04
   0.551247E-02
   0.852259E-02
   0.592383E-02
   0.244869E-02
   0.381978E-02
   0.241998E-02
   0.255051E-02
   0.406630E-02
   0.287671E-02
   0.218195E-02
   0.323055E-02
   0.396623E-02
   0.637269E-02
   0.217541E-02
   0.519134E-03
   0.841233E-02
   0.260122E-02
   0.272157E-02
   0.214540E-02
   0.563037E-02
   0.512221E-03
   0.432158E-02
   0.451285E-02
   0.471491E-02
   0.244076E-02
   0.945606E-05
   0.305934E-04
   0.288296E-02
   0.575708E-05
   0.649561E-02
   0.370473E-02
   0.843593E-02
   0.412865E-02
   0.386622E-02
   0.400444E-02
   0.165308E-04
   0.289602E-02
   0.374031E-02
   0.236890E-02
   0.656427E-02
   0.729913E-02
   0.547063E-02
   0.377001E-02
   0.244850E-02
   0.252688E-02
   0.221771E-02
   0.406930E-02
   0.320895E-02
   0.235949E-02
   0.842342E-02
   0.366561E-02
   0.409121E-02
   0.567360E-02
   0.844135E-02
   0.578532E-02
   0.360504E-05
   0.291291E-02
   0.391187E-02
   0.385806E-02
   0.155020E-04
   0.710898E-05
   0.192230E-02
   0.183861E-02
   0.338902E-03
   0.610620E-02
   0.183239E-02
   0.110388E-02
   0.614858E-03
   0.598007E-03
   0.632534E-02
   0.240283E-02
   0.119370E-04
   0.536983E-02
   0.840818E-02
   0.634438E-02
   0.259846E-02
   0.870051E-02
   0.271259E-02
   0.171272E-02
   0.675139E-03
   0.745937E-03
   0.565369E-02
   0.214646E-02
   0.515711E-03
   0.442890E-02
   0.434292E-02
   0.473232E-02
   0.634706E-02
   0.730550E-02
   0.538353E-02
   0.262933E-07
   0.168731E-02
   0.239056E-02
   0.606647E-02
   0.333570E-03
   0.179290E-02
   0.659712E-03
   0.109914E-02
   0.624619E-03
   0.264909E-02
   0.260203E-02
   0.118884E-04
   0.364650E-05
   0.296284E-02
   0.292228E-02
   0.840163E-02
   0.298759E-02
   0.299621E-02
   0.185248E-06
   0.576678E-02
   0.648514E-02
   0.564348E-02
   0.433209E-02
   0.375276E-02
   0.385630E-02
   0.797014E-02
   0.371738E-02
   0.308641E-02
   0.133002E-02
   0.128700E-02
   0.545850E-02
   0.849933E-02
   0.654671E-02
   0.843281E-02
   0.369204E-02
   0.411267E-02
   0.527093E-05
   0.305165E-02
   0.771634E-03
   0.374243E-02
   0.290022E-02
   0.236862E-02
   0.648833E-02
   0.336967E-05
   0.241706E-02
   0.792145E-02
   0.240470E-02
   0.361315E-04
   0.124749E-04
   0.134483E-02
   0.191828E-02
   0.192376E-02
   0.868914E-02
   0.256985E-02
   0.273681E-02
   0.673256E-03
   0.171298E-02
   0.753230E-03
   0.406982E-02
   0.473375E-02
   0.447644E-02
   0.109170E-02
   0.681574E-03
   0.391143E-02
   0.376407E-02
   0.129396E-02
   0.308463E-02
   0.636443E-02
   0.591361E-02
   0.549751E-02
   0.122808E-04
   0.190978E-02
   0.131663E-02
   0.843085E-02
   0.578600E-02
   0.567161E-02
   0.291565E-02
   0.408140E-05
   0.642566E-02
   0.250969E-04
   0.137008E-04
   0.135068E-04
   0.290334E-02
   0.322585E-02
   0.224349E-02
   0.291137E-02
   0.611301E-03
   0.136724E-02
   0.727097E-02
   0.533237E-02
   0.636452E-02
   0.238047E-02
   0.169303E-02
   0.251353E-05
   0.184106E-02
   0.668529E-03