# vtk DataFile Version 2.0
This file was created by Fortran
ASCII
DATASET UNSTRUCTURED_GRID
POINTS  2400  DOUBLE
  -0.446421E+00   0.232376E+00  -0.326664E+00
  -0.434879E+00   0.117066E+00  -0.396454E+00
  -0.362052E+00   0.117026E+00  -0.463922E+00
  -0.292178E+00   0.229257E+00  -0.471247E+00
  -0.383402E+00   0.325439E+00  -0.327251E+00
  -0.293616E+00   0.322208E+00  -0.412276E+00
  -0.546544E+00   0.216319E+00  -0.120400E+00
  -0.545995E+00   0.116630E+00  -0.219744E+00
  -0.500526E+00   0.117127E+00  -0.309444E+00
  -0.445511E+00   0.323628E+00  -0.238296E+00
  -0.501490E+00   0.306365E+00  -0.121031E+00
  -0.271721E+00   0.113956E+00  -0.522668E+00
  -0.181828E+00   0.113416E+00  -0.560424E+00
  -0.201811E+00   0.317202E+00  -0.467606E+00
  -0.872702E-01   0.294689E+00  -0.515308E+00
  -0.868450E-01   0.207928E+00  -0.556079E+00
  -0.433802E+00   0.396999E+00  -0.119198E+00
  -0.291832E+00   0.413107E+00  -0.322764E+00
  -0.287377E+00   0.473130E+00  -0.231436E+00
  -0.360813E+00   0.464356E+00  -0.119113E+00
  -0.198200E+00   0.469926E+00  -0.316048E+00
  -0.866090E-01   0.385091E+00  -0.451889E+00
  -0.865871E-01   0.452879E+00  -0.383931E+00
  -0.408175E+00  -0.131179E-04  -0.439765E+00
  -0.500550E+00  -0.117156E+00  -0.309394E+00
  -0.527838E+00  -0.101372E-04  -0.285285E+00
  -0.434625E+00  -0.117155E+00  -0.396706E+00
  -0.247886E+00  -0.452937E-05  -0.546400E+00
  -0.361761E+00  -0.117096E+00  -0.464131E+00
  -0.271641E+00  -0.113987E+00  -0.522703E+00
  -0.583050E+00  -0.100136E+00  -0.100128E+00
  -0.583051E+00   0.100131E+00  -0.100129E+00
  -0.546014E+00  -0.116646E+00  -0.219687E+00
  -0.591809E+00  -0.255941E-05  -0.988036E-01
  -0.650262E-01  -0.131759E-04  -0.590710E+00
  -0.181741E+00  -0.113433E+00  -0.560449E+00
  -0.662538E-01   0.950984E-01  -0.588699E+00
  -0.662453E-01  -0.950927E-01  -0.588701E+00
  -0.268348E+00   0.524386E+00  -0.114056E+00
  -0.835875E-01   0.516091E+00  -0.294387E+00
  -0.178211E+00   0.561591E+00  -0.113389E+00
  -0.831811E-01   0.556734E+00  -0.207674E+00
  -0.408200E+00   0.439742E+00  -0.324498E-05
  -0.433805E+00   0.396998E+00   0.119188E+00
  -0.501488E+00   0.306369E+00   0.121030E+00
  -0.527838E+00   0.285285E+00  -0.172934E-05
   0.283873E-01   0.420354E+00  -0.420378E+00
   0.283781E-01   0.269897E+00  -0.529554E+00
   0.139821E+00   0.290303E+00  -0.506137E+00
   0.139248E+00   0.378078E+00  -0.444598E+00
  -0.546541E+00   0.216323E+00   0.120402E+00
  -0.583050E+00   0.100133E+00   0.100132E+00
  -0.591808E+00   0.988084E-01   0.877003E-06
   0.281534E-01   0.930023E-01  -0.587007E+00
   0.139154E+00   0.203972E+00  -0.546838E+00
   0.120269E+00   0.947499E-01  -0.580136E+00
  -0.446211E+00  -0.232479E+00  -0.326878E+00
  -0.383139E+00  -0.325511E+00  -0.327486E+00
  -0.291795E+00  -0.229320E+00  -0.471453E+00
  -0.293315E+00  -0.322244E+00  -0.412462E+00
  -0.247923E+00   0.546383E+00  -0.478484E-06
  -0.268348E+00   0.524387E+00   0.114053E+00
  -0.360816E+00   0.464356E+00   0.119104E+00
   0.283821E-01   0.529489E+00  -0.269874E+00
   0.139232E+00   0.445566E+00  -0.376942E+00
   0.136456E+00   0.507159E+00  -0.290120E+00
  -0.546553E+00  -0.216330E+00  -0.120338E+00
  -0.501499E+00  -0.306376E+00  -0.120967E+00
  -0.445529E+00  -0.323647E+00  -0.238235E+00
  -0.201724E+00  -0.317231E+00  -0.467623E+00
  -0.867443E-01  -0.207937E+00  -0.556091E+00
  -0.871596E-01  -0.294706E+00  -0.515317E+00
  -0.591808E+00  -0.988100E-01   0.147305E-05
  -0.591808E+00  -0.633662E-06   0.988082E-01
   0.117845E+00  -0.138758E-04  -0.584416E+00
   0.281610E-01  -0.930264E-01  -0.587016E+00
  -0.650506E-01   0.590697E+00   0.208523E-05
  -0.662701E-01   0.588700E+00   0.950850E-01
  -0.178210E+00   0.561590E+00   0.113391E+00
  -0.662745E-01   0.588699E+00  -0.950834E-01
   0.281379E-01   0.586960E+00  -0.929949E-01
   0.135779E+00   0.547741E+00  -0.203822E+00
   0.120282E+00   0.580136E+00  -0.947357E-01
  -0.583050E+00  -0.100134E+00   0.100132E+00
  -0.546553E+00  -0.216328E+00   0.120342E+00
  -0.527838E+00  -0.285285E+00   0.116795E-05
   0.120275E+00  -0.947453E-01  -0.580136E+00
   0.284036E-01  -0.269894E+00  -0.529562E+00
   0.139128E+00  -0.203966E+00  -0.546846E+00
  -0.445990E+00   0.232429E+00   0.327214E+00
  -0.500519E+00   0.117139E+00   0.309449E+00
  -0.545991E+00   0.116636E+00   0.219749E+00
  -0.445511E+00   0.323632E+00   0.238291E+00
   0.246245E+00   0.304113E+00  -0.448504E+00
   0.229651E+00   0.109582E+00  -0.543371E+00
   0.310803E+00   0.109963E+00  -0.501308E+00
   0.325964E+00   0.218071E+00  -0.449007E+00
  -0.433804E+00  -0.396999E+00  -0.119190E+00
  -0.360814E+00  -0.464357E+00  -0.119105E+00
  -0.291835E+00  -0.413114E+00  -0.322753E+00
  -0.287381E+00  -0.473130E+00  -0.231430E+00
  -0.198201E+00  -0.469929E+00  -0.316042E+00
  -0.865914E-01  -0.385098E+00  -0.451886E+00
  -0.865882E-01  -0.452883E+00  -0.383927E+00
  -0.291836E+00   0.413114E+00   0.322752E+00
  -0.382927E+00   0.325478E+00   0.327766E+00
  -0.287381E+00   0.473131E+00   0.231429E+00
   0.243047E+00   0.451018E+00  -0.303128E+00
   0.329736E+00   0.309145E+00  -0.394593E+00
   0.328192E+00   0.395445E+00  -0.309698E+00
  -0.546013E+00  -0.116642E+00   0.219693E+00
  -0.527834E+00   0.118330E-06   0.285291E+00
   0.286954E+00   0.697991E-05  -0.523655E+00
   0.229625E+00  -0.109580E+00  -0.543383E+00
   0.117840E+00   0.584403E+00   0.227678E-05
   0.281431E-01   0.586953E+00   0.929956E-01
  -0.835863E-01   0.516091E+00   0.294387E+00
  -0.198198E+00   0.469932E+00   0.316041E+00
  -0.831764E-01   0.556734E+00   0.207675E+00
  -0.501499E+00  -0.306374E+00   0.120971E+00
  -0.433804E+00  -0.396998E+00   0.119191E+00
  -0.408200E+00  -0.439742E+00   0.134957E-05
   0.226379E+00   0.544733E+00  -0.109629E+00
   0.321545E+00   0.450622E+00  -0.220028E+00
   0.307798E+00   0.503126E+00  -0.110110E+00
   0.139807E+00  -0.290305E+00  -0.506139E+00
   0.284042E-01  -0.420352E+00  -0.420376E+00
   0.139276E+00  -0.378076E+00  -0.444590E+00
  -0.500548E+00  -0.117146E+00   0.309401E+00
  -0.446212E+00  -0.232477E+00   0.326878E+00
  -0.445530E+00  -0.323645E+00   0.238238E+00
   0.310783E+00  -0.109947E+00  -0.501324E+00
   0.246219E+00  -0.304106E+00  -0.448487E+00
   0.325726E+00  -0.218106E+00  -0.449207E+00
  -0.268350E+00  -0.524385E+00  -0.114054E+00
  -0.178213E+00  -0.561590E+00  -0.113388E+00
  -0.835906E-01  -0.516090E+00  -0.294388E+00
  -0.831842E-01  -0.556733E+00  -0.207674E+00
   0.120288E+00   0.580134E+00   0.947374E-01
   0.283878E-01   0.529483E+00   0.269874E+00
   0.135790E+00   0.547739E+00   0.203822E+00
   0.286975E+00   0.523615E+00  -0.213648E-05
   0.226384E+00   0.544731E+00   0.109629E+00
  -0.434625E+00  -0.117147E+00   0.396709E+00
  -0.434394E+00   0.117087E+00   0.396979E+00
  -0.408182E+00   0.541456E-06   0.439758E+00
   0.428130E+00   0.204120E-04  -0.415155E+00
   0.391046E+00   0.111207E+00  -0.441267E+00
   0.390821E+00  -0.111229E+00  -0.441460E+00
  -0.291568E+00   0.229229E+00   0.471637E+00
  -0.361503E+00   0.117020E+00   0.464351E+00
  -0.293055E+00   0.322175E+00   0.412701E+00
   0.409655E+00   0.309107E+00  -0.310863E+00
   0.454426E+00   0.111352E+00  -0.375629E+00
   0.459869E+00   0.218399E+00  -0.307323E+00
  -0.360814E+00  -0.464356E+00   0.119107E+00
  -0.268346E+00  -0.524387E+00   0.114057E+00
  -0.247923E+00  -0.546383E+00   0.264156E-05
   0.139242E+00  -0.445565E+00  -0.376940E+00
   0.283800E-01  -0.529487E+00  -0.269874E+00
   0.136451E+00  -0.507160E+00  -0.290121E+00
  -0.865944E-01   0.385099E+00   0.451885E+00
  -0.201778E+00   0.317225E+00   0.467604E+00
  -0.865855E-01   0.452885E+00   0.383925E+00
   0.390050E+00   0.441646E+00  -0.113182E+00
   0.458648E+00   0.304045E+00  -0.223719E+00
   0.453597E+00   0.376034E+00  -0.113351E+00
  -0.383141E+00  -0.325511E+00   0.327484E+00
  -0.291834E+00  -0.413113E+00   0.322755E+00
  -0.287378E+00  -0.473131E+00   0.231432E+00
   0.329513E+00  -0.309159E+00  -0.394769E+00
   0.243054E+00  -0.451020E+00  -0.303125E+00
   0.328204E+00  -0.395446E+00  -0.309685E+00
   0.136461E+00   0.507157E+00   0.290121E+00
   0.284020E-01   0.420353E+00   0.420377E+00
   0.139242E+00   0.445565E+00   0.376940E+00
   0.428183E+00   0.415063E+00  -0.883544E-05
   0.390056E+00   0.441644E+00   0.113168E+00
   0.307804E+00   0.503124E+00   0.110102E+00
  -0.361774E+00  -0.117092E+00   0.464122E+00
  -0.291796E+00  -0.229325E+00   0.471450E+00
  -0.293315E+00  -0.322245E+00   0.412462E+00
   0.454235E+00  -0.111370E+00  -0.375856E+00
   0.409457E+00  -0.309156E+00  -0.311074E+00
   0.459678E+00  -0.218439E+00  -0.307464E+00
  -0.271653E+00  -0.113987E+00   0.522697E+00
  -0.271704E+00   0.113980E+00   0.522672E+00
  -0.247905E+00  -0.221128E-05   0.546391E+00
   0.535696E+00   0.213494E-04  -0.270241E+00
   0.511927E+00   0.110807E+00  -0.292664E+00
   0.511965E+00  -0.110784E+00  -0.292606E+00
  -0.178209E+00  -0.561590E+00   0.113393E+00
  -0.662702E-01  -0.588699E+00   0.950868E-01
  -0.662756E-01  -0.588699E+00  -0.950823E-01
  -0.650512E-01  -0.590697E+00   0.368233E-05
   0.135774E+00  -0.547743E+00  -0.203822E+00
   0.281360E-01  -0.586960E+00  -0.929938E-01
   0.120279E+00  -0.580137E+00  -0.947344E-01
   0.243060E+00   0.451012E+00   0.303124E+00
   0.321555E+00   0.450615E+00   0.220019E+00
  -0.868084E-01   0.207934E+00   0.556083E+00
  -0.181805E+00   0.113431E+00   0.560429E+00
  -0.872239E-01   0.294703E+00   0.515308E+00
   0.512853E+00   0.289607E+00  -0.114496E+00
   0.551744E+00   0.110574E+00  -0.208211E+00
   0.552257E+00   0.204883E+00  -0.114172E+00
   0.139272E+00   0.378075E+00   0.444593E+00
   0.283961E-01   0.269889E+00   0.529563E+00
   0.139851E+00   0.290297E+00   0.506131E+00
  -0.198196E+00  -0.469930E+00   0.316044E+00
[...]
POINT_DATA  2400
SCALARS  vx_strength  double
LOOKUP_TABLE default
   0.207340E-02
   0.252378E-02
   0.477133E-02
   0.106839E-03
   0.338323E-02
   0.130583E-02
   0.172612E-02
   0.172848E-02
   0.301174E-02
   0.206709E-02
   0.327285E-02
   0.889383E-03
   0.559825E-02
   0.618899E-02
   0.410800E-02
   0.348614E-02
   0.259547E-02
   0.139454E-02
   0.638547E-04
   0.478226E-02
   0.605724E-02
   0.330127E-02
   0.330563E-02
   0.104486E-03
   0.314626E-02
   0.291422E-04
   0.257278E-02
   0.805970E-04
   0.459917E-02
   0.815859E-03
   0.160421E-02
   0.157998E-02
   0.168083E-02
   0.771163E-05
   0.103444E-03
   0.580376E-02
   0.304540E-02
   0.302332E-02
   0.682633E-03
   0.413807E-02
   0.600766E-02
   0.378827E-02
   0.227041E-05
   0.260935E-02
   0.325828E-02
   0.210266E-05
   0.541519E-02
   0.611000E-02
   0.672212E-02
   0.594327E-02
   0.172046E-02
   0.159749E-02
   0.592006E-05
   0.490301E-02
   0.565189E-02
   0.544879E-02
   0.204942E-02
   0.339818E-02
   0.198851E-03
   0.109735E-02
   0.248266E-05
   0.700794E-03
   0.476523E-02
   0.625882E-02
   0.584732E-02
   0.662099E-02
   0.171863E-02
   0.324266E-02
   0.213147E-02
   0.632603E-02
   0.358458E-02
   0.411059E-02
   0.452927E-05
   0.273770E-05
   0.138562E-04
   0.481342E-02
   0.128882E-04
   0.339094E-02
   0.602272E-02
   0.335217E-02
   0.480799E-02
   0.553710E-02
   0.533499E-02
   0.159610E-02
   0.171350E-02
   0.537617E-05
   0.546778E-02
   0.611103E-02
   0.565977E-02
   0.204273E-02
   0.317256E-02
   0.169677E-02
   0.214348E-02
   0.187950E-02
   0.168824E-02
   0.260217E-02
   0.211340E-02
   0.260351E-02
   0.477838E-02
   0.131385E-02
   0.654388E-04
   0.607651E-02
   0.327953E-02
   0.327340E-02
   0.131619E-02
   0.337924E-02
   0.667242E-04
   0.197424E-02
   0.319812E-02
   0.330227E-02
   0.170034E-02
   0.478339E-05
   0.232656E-05
   0.169062E-02
   0.302878E-04
   0.485116E-02
   0.417560E-02
   0.608607E-02
   0.382450E-02
   0.325755E-02
   0.260688E-02
   0.778843E-05
   0.167487E-02
   0.224318E-02
   0.258275E-02
   0.672932E-02
   0.538693E-02
   0.593957E-02
   0.314105E-02
   0.205061E-02
   0.213902E-02
   0.258917E-02
   0.189104E-02
   0.210711E-02
   0.694794E-03
   0.600670E-02
   0.415420E-02
   0.379320E-02
   0.537461E-02
   0.628151E-02
   0.554418E-02
   0.319498E-05
   0.167641E-02
   0.253059E-02
   0.250902E-02
   0.114354E-05
   0.244972E-05
   0.236458E-02
   0.237593E-02
   0.192062E-03
   0.463097E-02
   0.111625E-02
   0.206140E-02
   0.220008E-02
   0.149897E-02
   0.476877E-02
   0.696535E-03
   0.172248E-05
   0.582701E-02
   0.626793E-02
   0.660111E-02
   0.328038E-02
   0.631452E-02
   0.328080E-02
   0.248918E-02
   0.161969E-02
   0.232025E-02
   0.338570E-02
   0.130590E-02
   0.705597E-04
   0.320565E-02
   0.195187E-02
   0.329308E-02
   0.661488E-02
   0.538443E-02
   0.583205E-02
   0.107966E-05
   0.249259E-02
   0.258505E-02
   0.462412E-02
   0.179713E-03
   0.111378E-02
   0.220801E-02
   0.207590E-02
   0.149724E-02
   0.821222E-03
   0.800270E-03
   0.342447E-05
   0.996576E-05
   0.361568E-02
   0.362858E-02
   0.602601E-02
   0.338828E-02
   0.334882E-02
   0.106469E-04
   0.553584E-02
   0.480807E-02
   0.532996E-02
   0.196205E-02
   0.224298E-02
   0.354292E-02
   0.578183E-02
   0.409877E-02
   0.368683E-02
   0.249095E-02
   0.253195E-02
   0.594058E-02
   0.608843E-02
   0.671914E-02
   0.609004E-02
   0.417306E-02
   0.382164E-02
   0.364434E-05
   0.369491E-02
   0.231606E-02
   0.224258E-02
   0.167295E-02
   0.258877E-02
   0.484953E-02
   0.308127E-04
   0.302856E-02
   0.579931E-02
   0.300779E-02
   0.325868E-05
   0.228973E-05
   0.247314E-02
   0.247378E-02
   0.247672E-02
   0.632270E-02
   0.327139E-02
   0.325993E-02
   0.161110E-02
   0.248748E-02
   0.231572E-02
   0.188531E-02
   0.330638E-02
   0.321058E-02
   0.206032E-02
   0.161609E-02
   0.355663E-02
   0.409922E-02
   0.252449E-02
   0.368593E-02
   0.480776E-02
   0.565242E-02
   0.544733E-02
   0.211541E-05
   0.247263E-02
   0.252576E-02
   0.627176E-02
   0.552954E-02
   0.536849E-02
   0.167254E-02
   0.288420E-05
   0.483534E-02
   0.308318E-04
   0.140617E-04
   0.138873E-04
   0.168748E-02
   0.211770E-02
   0.259622E-02
   0.359476E-02
   0.150884E-02
   0.249591E-02
   0.537943E-02
   0.582744E-02
   0.658417E-02
   0.259153E-02
   0.249280E-02
   0.318192E-05
   0.237697E-02
   0.220572E-02
   0.548918E-02
   0.610624E-02
   0.567816E-02
   0.916944E-05
   0.254476E-02
   0.248657E-02
   0.673491E-02
   0.593872E-02
   0.229981E-02
   0.368554E-02
   0.194561E-02
   0.224699E-02
   0.250616E-05
   0.168934E-02
   0.178027E-04
   0.252227E-02
   0.591590E-05
   0.256490E-02
   0.241688E-02
   0.359173E-02
   0.218209E-02
   0.189652E-02
   0.322329E-02
   0.329597E-02
   0.205369E-02
   0.162337E-02
   0.210566E-02
   0.151239E-02
   0.209492E-02
   0.264362E-02
   0.482548E-02
   0.785556E-04
   0.345190E-02
   0.160309E-02
   0.177170E-02
   0.175378E-02
   0.309173E-02
   0.208571E-02
   0.333832E-02
   0.732360E-03
   0.537563E-02
   0.552348E-02
   0.300006E-02
   0.264933E-02
   0.267462E-02
   0.168674E-02
   0.240389E-03
   0.474453E-02
   0.541862E-02
   0.223022E-02
   0.226852E-02
   0.692290E-04
   0.321430E-02
   0.145760E-04
   0.263973E-02
   0.391149E-04
   0.457573E-02
   0.949890E-03
   0.167084E-02
   0.165074E-02
   0.172094E-02
   0.227799E-05
   0.454382E-04
   0.545235E-02
   0.235167E-02
   0.243089E-02
   0.809144E-03
   0.312544E-02
   0.566070E-02
   0.301931E-02
   0.676744E-05
   0.267520E-02
   0.333736E-02
   0.701400E-05
   0.462961E-02
   0.531137E-02
   0.620603E-02
   0.550804E-02
   0.177546E-02
   0.167055E-02
   0.101699E-04
   0.455754E-02
   0.527931E-02
   0.542819E-02
   0.205993E-02
   0.344572E-02
   0.689004E-04
   0.139579E-02
   0.238440E-04
   0.846492E-03
   0.473130E-02
   0.557825E-02
   0.545896E-02
   0.628298E-02
   0.177785E-02
   0.332042E-02
   0.212006E-02
   0.573026E-02
   0.280548E-02
   0.310595E-02
   0.997348E-06
   0.689456E-05
   0.342627E-04
   0.454637E-02
   0.103965E-05
   0.280308E-02
   0.562870E-02
   0.280508E-02
   0.462552E-02
   0.531831E-02
   0.544303E-02
   0.166829E-02
   0.177542E-02
   0.476307E-05
   0.549115E-02
   0.535554E-02
   0.531622E-02
   0.205755E-02
   0.323568E-02
   0.172955E-02
   0.212839E-02
   0.162570E-02
   0.145861E-02
   0.279183E-02
   0.230414E-02
   0.267850E-02
   0.474283E-02
   0.167579E-02
   0.254458E-03
   0.541285E-02
   0.228336E-02
   0.227172E-02
   0.167862E-02
   0.342553E-02
   0.255196E-03
   0.184429E-02
   0.346424E-02
   0.365542E-02
   0.173007E-02
   0.582841E-05
   0.225357E-04
   0.149932E-02
   0.378695E-04
   0.466443E-02
   0.317439E-02
   0.542744E-02
   0.303809E-02
   0.333625E-02
   0.267635E-02
   0.489006E-05
   0.151973E-02
   0.253293E-02
   0.283002E-02
   0.622555E-02
   0.462892E-02
   0.551688E-02
   0.320582E-02
   0.206869E-02
   0.211989E-02
   0.281435E-02
   0.163281E-02
   0.230322E-02
   0.812352E-03
   0.565258E-02
   0.314583E-02
   0.302309E-02
   0.550879E-02
   0.561324E-02
   0.535027E-02
   0.108833E-04
   0.154416E-02
   0.259356E-02
   0.257484E-02
   0.106037E-05
   0.255907E-05
   0.266546E-02
   0.266874E-02
   0.826558E-04
   0.461279E-02
   0.142414E-02
   0.241012E-02
   0.246534E-02
   0.164542E-02
   0.472988E-02
   0.845684E-03
   0.192595E-04
   0.545017E-02
   0.558981E-02
   0.627356E-02
   0.228504E-02
   0.571444E-02
   0.228137E-02
   0.278822E-02
   0.175823E-02
   0.256781E-02
   0.342958E-02
   0.167037E-02
   0.248313E-03
   0.347035E-02
   0.181564E-02
   0.364414E-02
   0.629512E-02
   0.462794E-02
   0.545630E-02
   0.232744E-06
   0.278707E-02
   0.284652E-02
   0.461211E-02
   0.934200E-04
   0.142072E-02
   0.247540E-02
   0.241639E-02
   0.165302E-02
   0.930942E-03
   0.899921E-03
   0.157159E-04
   0.659615E-05
   0.370111E-02
   0.370780E-02
   0.563062E-02
   0.280454E-02
   0.280202E-02
   0.616902E-06
   0.532599E-02
   0.462442E-02
   0.544157E-02
   0.183880E-02
   0.253796E-02
   0.277846E-02
   0.547744E-02
   0.309714E-02
   0.378828E-02
   0.236140E-02
   0.240254E-02
   0.551188E-02
   0.533344E-02
   0.620481E-02
   0.543662E-02
   0.318571E-02
   0.304682E-02
   0.221909E-05
   0.379060E-02
   0.256825E-02
   0.252548E-02
   0.151493E-02
   0.283243E-02
   0.466165E-02
   0.366161E-04
   0.241159E-02
   0.547345E-02
   0.241192E-02
   0.130950E-04
   0.157296E-05
   0.234738E-02
   0.232957E-02
   0.233390E-02
   0.572594E-02
   0.227561E-02
   0.226572E-02
   0.175533E-02
   0.278801E-02
   0.256547E-02
   0.162376E-02
   0.366740E-02
   0.347422E-02
   0.240269E-02
   0.175844E-02
   0.279022E-02
   0.311038E-02
   0.239685E-02
   0.378749E-02
   0.451885E-02
   0.529635E-02
   0.544589E-02
   0.172386E-05
   0.232584E-02
   0.240094E-02
   0.561417E-02
   0.534370E-02
   0.550463E-02
   0.153705E-02
   0.965926E-05
   0.453370E-02
   0.279484E-04
   0.621962E-05
   0.637053E-05
   0.148482E-02
   0.230820E-02
   0.280856E-02
   0.366912E-02
   0.165893E-02
   0.237586E-02
   0.462132E-02
   0.544963E-02
   0.627076E-02
   0.284769E-02
   0.278965E-02
   0.269548E-05
   0.267235E-02
   0.247221E-02
   0.549938E-02
   0.536003E-02
   0.534306E-02
   0.109273E-04
   0.243598E-02
   0.231424E-02
   0.622846E-02
   0.551558E-02
   0.255061E-02
   0.378421E-02
   0.181021E-02
   0.253075E-02
   0.228800E-04
   0.152537E-02
   0.149142E-04
   0.241188E-02
   0.821626E-05
   0.281689E-02
   0.270359E-02
   0.367164E-02
   0.244446E-02
   0.163349E-02
   0.348371E-02
   0.364962E-02
   0.239127E-02
   0.176641E-02
   0.230381E-02
   0.166693E-02
   0.200124E-02
   0.279492E-02
   0.494785E-02
   0.411947E-04
   0.389156E-02
   0.150224E-02
   0.183459E-02
   0.177470E-02
   0.321098E-02
   0.201640E-02
   0.338098E-02
   0.756245E-03
   0.571424E-02
   0.581144E-02
   0.237459E-02
   0.218301E-02
   0.279895E-02
   0.164828E-02
   0.230900E-03
   0.495906E-02
   0.562823E-02
   0.151235E-02
   0.152716E-02
   0.645285E-05
   0.326379E-02
   0.180588E-04
   0.273443E-02
   0.178968E-03
   0.478731E-02
   0.115484E-02
   0.172835E-02
   0.172250E-02
   0.179189E-02
   0.301563E-06
   0.363546E-04
   0.554699E-02
   0.189895E-02
   0.190796E-02
   0.100797E-02
   0.241040E-02
   0.573817E-02
   0.242381E-02
   0.405158E-05
   0.279058E-02
   0.337349E-02
   0.764610E-05
   0.364938E-02
   0.440171E-02
   0.518068E-02
   0.458436E-02
   0.183730E-02
   0.174223E-02
   0.864804E-05
   0.397327E-02
   0.440544E-02
   0.484238E-02
   0.194538E-02
   0.387514E-02
   0.577426E-04
   0.139295E-02
   0.298799E-04
   0.105691E-02
   0.495687E-02
   0.460668E-02
   0.456945E-02
   0.529952E-02
   0.183537E-02
   0.335868E-02
   0.202587E-02
   0.597090E-02
   0.229017E-02
   0.249234E-02
   0.304401E-05
   0.530247E-05
   0.152436E-04
   0.395216E-02
   0.310603E-04
   0.222231E-02
   0.567237E-02
   0.229955E-02
   0.410279E-02
   0.448733E-02
   0.493663E-02
   0.173719E-02
   0.183211E-02
   0.689037E-06
   0.488433E-02
   0.445768E-02
   0.443738E-02
   0.194563E-02
   0.329202E-02
   0.179197E-02
   0.203293E-02
   0.737005E-03
   0.578281E-03
   0.245502E-02
   0.199429E-02
   0.279716E-02
   0.495983E-02
   0.168665E-02
   0.257698E-03
   0.561337E-02
   0.157934E-02
   0.154023E-02
   0.168699E-02
   0.385665E-02
   0.251242E-03
   0.100713E-02
   0.318515E-02
   0.340601E-02
   0.179531E-02
   0.455671E-05
   0.298736E-04
   0.632924E-03
   0.128159E-04
   0.408454E-02
   0.244003E-02
   0.562539E-02
   0.240856E-02
   0.337244E-02
   0.278717E-02
   0.291610E-05
   0.713128E-03
   0.228568E-02
   0.259563E-02
   0.519976E-02
   0.366908E-02
   0.460077E-02
   0.325949E-02
   0.195467E-02
   0.202687E-02
   0.250494E-02
   0.738457E-03
   0.199452E-02
   0.101688E-02
   0.573079E-02
   0.242003E-02
   0.241990E-02
   0.497337E-02
   0.463119E-02
   0.451930E-02
   0.135875E-04
   0.746041E-03
   0.271503E-02
   0.269225E-02
   0.112738E-05
   0.556756E-05
   0.326973E-02
   0.325197E-02
   0.718161E-04
   0.480777E-02
   0.142354E-02
   0.306956E-02
   0.245974E-02
   0.151894E-02
   0.495658E-02
   0.105732E-02
   0.298516E-04
   0.457428E-02
   0.462248E-02
   0.530331E-02
   0.158342E-02
   0.595145E-02
   0.154862E-02
   0.333211E-02
   0.160937E-02
   0.255121E-02
   0.385948E-02
   0.168228E-02
   0.252441E-03
   0.317922E-02
   0.987203E-03
   0.339270E-02
   0.531035E-02
   0.366737E-02
   0.457803E-02
   0.248528E-05
   0.332198E-02
   0.262150E-02
   0.481172E-02
   0.767992E-04
   0.142510E-02
   0.247982E-02
   0.306985E-02
   0.153366E-02
   0.113124E-02
   0.109624E-02
   0.218962E-04
   0.382150E-05
   0.379791E-02
   0.379444E-02
   0.567763E-02
   0.222877E-02
   0.229040E-02
   0.302498E-04
   0.450314E-02
   0.410325E-02
   0.493803E-02
   0.100766E-02
   0.229764E-02
   0.229148E-02
   0.559572E-02
   0.249294E-02
   0.391698E-02
   0.226583E-02
   0.229904E-02
   0.459688E-02
   0.444549E-02
   0.518764E-02
   0.563634E-02
   0.246276E-02
   0.242113E-02
   0.539195E-06
   0.391091E-02
   0.255947E-02
   0.227556E-02
   0.712536E-03
   0.259287E-02
   0.408804E-02
   0.150366E-04
   0.189702E-02
   0.557589E-02
   0.192559E-02
   0.265651E-04
   0.748568E-06
   0.225762E-02
   0.226441E-02
   0.226925E-02
   0.596130E-02
   0.157577E-02
   0.153735E-02
   0.161239E-02
   0.333226E-02
   0.254962E-02
   0.732349E-03
   0.342101E-02
   0.319079E-02
   0.305965E-02
   0.161500E-02
   0.229966E-02
   0.250679E-02
   0.229383E-02
   0.391415E-02
   0.394439E-02
   0.442701E-02
   0.485912E-02
   0.179154E-05
   0.225761E-02
   0.230357E-02
   0.464863E-02
   0.453181E-02
   0.497623E-02
   0.743499E-03
   0.131517E-04
   0.392418E-02
   0.635208E-05
   0.328370E-05
   0.743589E-06
   0.616080E-03
   0.200031E-02
   0.249323E-02
   0.375548E-02
   0.153415E-02
   0.229236E-02
   0.366452E-02
   0.458014E-02
   0.530591E-02
   0.261584E-02
   0.332654E-02
   0.804849E-06
   0.326208E-02
   0.247399E-02
   0.488396E-02
   0.446656E-02
   0.446395E-02
   0.132715E-04
   0.235229E-02
   0.221806E-02
   0.520803E-02
   0.460796E-02
   0.253954E-02
   0.390739E-02
   0.983895E-03
   0.228678E-02
   0.329805E-04
   0.670414E-03
   0.210735E-05
   0.232850E-02
   0.105150E-05
   0.253996E-02
   0.325998E-02
   0.377228E-02
   0.245847E-02
   0.739301E-03
   0.318977E-02
   0.339960E-02
   0.304873E-02
   0.162243E-02
   0.200688E-02
   0.154372E-02
   0.195811E-02
   0.285675E-02
   0.507250E-02
   0.157681E-03
   0.440488E-02
   0.990790E-03
   0.191616E-02
   0.181935E-02
   0.341149E-02
   0.206163E-02
   0.343708E-02
   0.693393E-03
   0.662049E-02
   0.674555E-02
   0.324139E-02
   0.301845E-02
   0.287530E-02
   0.111404E-02
   0.598722E-04
   0.524064E-02
   0.654866E-02
   0.225187E-02
   0.221711E-02
   0.564614E-04
   0.334042E-02
   0.542756E-04
   0.278645E-02
   0.229317E-03
   0.509110E-02
   0.105785E-02
   0.179837E-02
   0.179334E-02
   0.187620E-02
   0.411090E-05
   0.547652E-04
   0.633151E-02
   0.241691E-02
   0.233180E-02
   0.902981E-03
   0.309860E-02
   0.653808E-02
   0.305843E-02
   0.705706E-06
   0.285748E-02
   0.344233E-02
   0.104961E-04
   0.389836E-02
   0.475596E-02
   0.525721E-02
   0.459109E-02
   0.191783E-02
   0.181756E-02
   0.818333E-05
   0.399845E-02
   0.438288E-02
   0.477036E-02
   0.194537E-02
   0.442818E-02
   0.165789E-03
   0.931199E-03
   0.225001E-04
   0.921316E-03
   0.525173E-02
   0.477988E-02
   0.456636E-02
   0.522753E-02
   0.191891E-02
   0.343982E-02
   0.202691E-02
   0.683075E-02
   0.304984E-02
   0.332474E-02
   0.393820E-05
   0.835604E-05
   0.103450E-04
   0.393334E-02
   0.512486E-04
   0.260899E-02
   0.649052E-02
   0.270378E-02
   0.409461E-02
   0.433161E-02
   0.482924E-02
   0.181060E-02
   0.192026E-02
   0.588898E-05
   0.475873E-02
   0.479183E-02
   0.438763E-02
   0.195133E-02
   0.337184E-02
   0.185866E-02
   0.203894E-02
   0.464728E-03
   0.799638E-05
   0.211290E-02
   0.189861E-02
   0.285984E-02
   0.524881E-02
   0.117157E-02
   0.203590E-04
   0.651512E-02
   0.228549E-02
   0.223152E-02
   0.116710E-02
   0.440993E-02
   0.354328E-04
   0.718496E-03
   0.322866E-02
   0.343754E-02
   0.186177E-02
   0.604219E-05
   0.171572E-04
   0.154914E-04
   0.132856E-04
   0.403007E-02
   0.311395E-02
   0.653045E-02
   0.303392E-02
   0.343958E-02
   0.285593E-02
   0.274233E-05
   0.104334E-03
   0.224721E-02
   0.231730E-02
   0.526621E-02
   0.390955E-02
   0.461474E-02
   0.333956E-02
   0.195948E-02
   0.202641E-02
   0.215804E-02
   0.454871E-03
   0.189633E-02
   0.900164E-03
   0.653227E-02
   0.310004E-02
   0.304494E-02
   0.482042E-02
   0.478395E-02
   0.434933E-02
   0.634008E-05
   0.120514E-03
   0.278703E-02
   0.275982E-02
   0.399155E-05
   0.101403E-04
   0.386461E-02
   0.382860E-02
   0.138376E-03
   0.508379E-02
   0.959233E-03
   0.355790E-02
   0.216138E-02
   0.122247E-02
   0.524958E-02
   0.927647E-03
   0.233246E-04
   0.457768E-02
   0.478651E-02
   0.524682E-02
   0.228336E-02
   0.680926E-02
   0.223803E-02
   0.383612E-02
   0.129644E-02
   0.225810E-02
   0.441670E-02
   0.116941E-02
   0.301230E-04
   0.320020E-02
   0.711770E-03
   0.343034E-02
   0.523228E-02
   0.391068E-02
   0.457540E-02
   0.426284E-05
   0.382005E-02
   0.233701E-02
   0.508716E-02
   0.136143E-03
   0.957615E-03
   0.219105E-02
   0.355901E-02
   0.124548E-02
   0.105057E-02
   0.102261E-02
   0.210614E-04
   0.294008E-07
   0.393109E-02
   0.391821E-02
   0.648748E-02
   0.261098E-02
   0.269781E-02
   0.486515E-04
   0.435516E-02
   0.409256E-02
   0.483465E-02
   0.721222E-03
   0.226360E-02
   0.305417E-02
   0.637489E-02
   0.332420E-02
   0.408061E-02
   0.215780E-02
   0.217181E-02
   0.461194E-02
   0.479223E-02
   0.526382E-02
   0.653423E-02
   0.313052E-02
   0.304130E-02
   0.342318E-05
   0.406526E-02
   0.227359E-02
   0.224196E-02
   0.105263E-03
   0.231281E-02
   0.403225E-02
   0.116618E-04
   0.233419E-02
   0.635764E-02
   0.236053E-02
   0.262938E-04
   0.242573E-05
   0.215525E-02
   0.225996E-02
   0.226599E-02
   0.681322E-02
   0.226949E-02
   0.222909E-02
   0.130278E-02
   0.383861E-02
   0.225904E-02
   0.460949E-03
   0.345365E-02
   0.322622E-02
   0.354847E-02
   0.130618E-02
   0.306637E-02
   0.333709E-02
   0.217070E-02
   0.407781E-02
   0.395972E-02
   0.439082E-02
   0.477061E-02
   0.865152E-06
   0.225031E-02
   0.218368E-02
   0.480500E-02
   0.437469E-02
   0.482966E-02
   0.122052E-03
   0.571931E-05
   0.392561E-02
   0.781455E-05
   0.119703E-04
   0.867947E-05
   0.211945E-04
   0.190799E-02
   0.215906E-02
   0.388022E-02
   0.123829E-02
   0.219479E-02
   0.390499E-02
   0.458229E-02
   0.525031E-02
   0.232813E-02
   0.382680E-02
   0.358609E-05
   0.383637E-02
   0.218535E-02