# vtk DataFile Version 2.0
This file was created by Fortran
ASCII
DATASET UNSTRUCTURED_GRID
POINTS  3000  DOUBLE
  -0.446478E+00   0.232301E+00  -0.326639E+00
  -0.434937E+00   0.117016E+00  -0.396405E+00
  -0.362099E+00   0.116959E+00  -0.463902E+00
  -0.292215E+00   0.229224E+00  -0.471240E+00
  -0.383473E+00   0.325402E+00  -0.327204E+00
  -0.293771E+00   0.322121E+00  -0.412234E+00
  -0.546565E+00   0.216275E+00  -0.120380E+00
  -0.546016E+00   0.116611E+00  -0.219700E+00
  -0.500565E+00   0.117113E+00  -0.309386E+00
  -0.445552E+00   0.323620E+00  -0.238230E+00
  -0.501531E+00   0.306305E+00  -0.121011E+00
  -0.271730E+00   0.113968E+00  -0.522661E+00
  -0.181920E+00   0.113446E+00  -0.560388E+00
  -0.201920E+00   0.317190E+00  -0.467566E+00
  -0.875585E-01   0.294645E+00  -0.515284E+00
  -0.871215E-01   0.207990E+00  -0.556013E+00
  -0.433846E+00   0.396966E+00  -0.119147E+00
  -0.291966E+00   0.413080E+00  -0.322677E+00
  -0.287420E+00   0.473116E+00  -0.231411E+00
  -0.360828E+00   0.464357E+00  -0.119061E+00
  -0.198339E+00   0.469874E+00  -0.316039E+00
  -0.870231E-01   0.385035E+00  -0.451858E+00
  -0.869975E-01   0.452844E+00  -0.383880E+00
  -0.408217E+00  -0.155764E-04  -0.439726E+00
  -0.500593E+00  -0.117124E+00  -0.309336E+00
  -0.527870E+00  -0.188375E-05  -0.285226E+00
  -0.434675E+00  -0.117093E+00  -0.396670E+00
  -0.247990E+00  -0.353930E-05  -0.546353E+00
  -0.361793E+00  -0.117050E+00  -0.464118E+00
  -0.271680E+00  -0.114026E+00  -0.522674E+00
  -0.583059E+00  -0.100109E+00  -0.100104E+00
  -0.583059E+00   0.100108E+00  -0.100104E+00
  -0.546038E+00  -0.116619E+00  -0.219643E+00
  -0.591813E+00  -0.409473E-06  -0.987801E-01
  -0.653716E-01  -0.488314E-05  -0.590714E+00
  -0.181867E+00  -0.113454E+00  -0.560404E+00
  -0.666383E-01   0.951542E-01  -0.588647E+00
  -0.666245E-01  -0.951310E-01  -0.588652E+00
  -0.268374E+00   0.524367E+00  -0.114081E+00
  -0.839026E-01   0.516050E+00  -0.294368E+00
  -0.178344E+00   0.561543E+00  -0.113417E+00
  -0.834679E-01   0.556665E+00  -0.207744E+00
  -0.408234E+00   0.439711E+00  -0.216095E-05
  -0.433847E+00   0.396968E+00   0.119137E+00
  -0.501531E+00   0.306307E+00   0.121008E+00
  -0.527871E+00   0.285224E+00  -0.174097E-05
   0.278358E-01   0.420178E+00  -0.420212E+00
   0.278291E-01   0.269826E+00  -0.529383E+00
   0.138841E+00   0.290351E+00  -0.506379E+00
   0.138266E+00   0.378244E+00  -0.444763E+00
  -0.546564E+00   0.216277E+00   0.120381E+00
  -0.583058E+00   0.100109E+00   0.100106E+00
  -0.591812E+00   0.987858E-01   0.918452E-06
   0.276288E-01   0.930355E-01  -0.586965E+00
   0.138162E+00   0.204149E+00  -0.547023E+00
   0.119435E+00   0.947438E-01  -0.580309E+00
  -0.446261E+00  -0.232403E+00  -0.326864E+00
  -0.383202E+00  -0.325473E+00  -0.327450E+00
  -0.291847E+00  -0.229296E+00  -0.471433E+00
  -0.293467E+00  -0.322148E+00  -0.412429E+00
  -0.248025E+00   0.546337E+00  -0.104663E-05
  -0.268376E+00   0.524366E+00   0.114084E+00
  -0.360829E+00   0.464358E+00   0.119053E+00
   0.278427E-01   0.529397E+00  -0.269856E+00
   0.138238E+00   0.445733E+00  -0.377110E+00
   0.135481E+00   0.507387E+00  -0.290178E+00
  -0.546577E+00  -0.216280E+00  -0.120317E+00
  -0.501545E+00  -0.306308E+00  -0.120948E+00
  -0.445577E+00  -0.323631E+00  -0.238168E+00
  -0.201876E+00  -0.317220E+00  -0.467566E+00
  -0.870466E-01  -0.208009E+00  -0.556017E+00
  -0.874709E-01  -0.294687E+00  -0.515275E+00
  -0.591812E+00  -0.987842E-01   0.158948E-05
  -0.591812E+00   0.495057E-06   0.987839E-01
   0.117094E+00  -0.220692E-04  -0.584913E+00
   0.276387E-01  -0.930709E-01  -0.587002E+00
  -0.654226E-01   0.590731E+00   0.942736E-06
  -0.666504E-01   0.588648E+00   0.951396E-01
  -0.178345E+00   0.561541E+00   0.113420E+00
  -0.666506E-01   0.588648E+00  -0.951405E-01
   0.276080E-01   0.587005E+00  -0.930478E-01
   0.134801E+00   0.547917E+00  -0.203999E+00
   0.119452E+00   0.580306E+00  -0.947417E-01
  -0.583058E+00  -0.100108E+00   0.100107E+00
  -0.546577E+00  -0.216280E+00   0.120320E+00
  -0.527873E+00  -0.285219E+00  -0.759178E-06
   0.119436E+00  -0.947545E-01  -0.580307E+00
   0.278647E-01  -0.269847E+00  -0.529420E+00
   0.138130E+00  -0.204139E+00  -0.547035E+00
  -0.446039E+00   0.232353E+00   0.327202E+00
  -0.500561E+00   0.117116E+00   0.309390E+00
  -0.546015E+00   0.116614E+00   0.219703E+00
  -0.445552E+00   0.323624E+00   0.238224E+00
   0.244893E+00   0.304606E+00  -0.449195E+00
   0.228327E+00   0.109701E+00  -0.543905E+00
   0.308851E+00   0.110066E+00  -0.502491E+00
   0.324133E+00   0.218865E+00  -0.450465E+00
  -0.433853E+00  -0.396960E+00  -0.119141E+00
  -0.360837E+00  -0.464352E+00  -0.119055E+00
  -0.291983E+00  -0.413075E+00  -0.322668E+00
  -0.287433E+00  -0.473113E+00  -0.231401E+00
  -0.198358E+00  -0.469870E+00  -0.316032E+00
  -0.870083E-01  -0.385046E+00  -0.451851E+00
  -0.870176E-01  -0.452845E+00  -0.383874E+00
  -0.291975E+00   0.413078E+00   0.322672E+00
  -0.382985E+00   0.325444E+00   0.327733E+00
  -0.287423E+00   0.473115E+00   0.231408E+00
   0.241723E+00   0.451766E+00  -0.303637E+00
   0.327677E+00   0.309878E+00  -0.395731E+00
   0.326150E+00   0.396582E+00  -0.310401E+00
  -0.546036E+00  -0.116618E+00   0.219647E+00
  -0.527867E+00   0.463014E-06   0.285231E+00
   0.285439E+00  -0.275980E-05  -0.525273E+00
   0.228297E+00  -0.109709E+00  -0.543916E+00
   0.117079E+00   0.584942E+00   0.412345E-05
   0.276083E-01   0.587005E+00   0.930510E-01
  -0.839038E-01   0.516049E+00   0.294369E+00
  -0.198347E+00   0.469867E+00   0.316044E+00
  -0.834690E-01   0.556663E+00   0.207748E+00
  -0.501545E+00  -0.306308E+00   0.120947E+00
  -0.433850E+00  -0.396965E+00   0.119136E+00
  -0.408240E+00  -0.439705E+00  -0.260363E-05
   0.225061E+00   0.545252E+00  -0.109762E+00
   0.319762E+00   0.452129E+00  -0.220831E+00
   0.305828E+00   0.504301E+00  -0.110227E+00
   0.138830E+00  -0.290363E+00  -0.506375E+00
   0.278546E-01  -0.420195E+00  -0.420206E+00
   0.138300E+00  -0.378250E+00  -0.444747E+00
  -0.500590E+00  -0.117123E+00   0.309341E+00
  -0.446262E+00  -0.232401E+00   0.326864E+00
  -0.445573E+00  -0.323636E+00   0.238168E+00
   0.308829E+00  -0.110055E+00  -0.502506E+00
   0.244865E+00  -0.304596E+00  -0.449180E+00
   0.323900E+00  -0.218898E+00  -0.450663E+00
  -0.268384E+00  -0.524363E+00  -0.114078E+00
  -0.178351E+00  -0.561541E+00  -0.113414E+00
  -0.839170E-01  -0.516053E+00  -0.294360E+00
  -0.834761E-01  -0.556665E+00  -0.207739E+00
   0.119452E+00   0.580305E+00   0.947471E-01
   0.278430E-01   0.529397E+00   0.269853E+00
   0.134809E+00   0.547915E+00   0.204000E+00
   0.285454E+00   0.525246E+00   0.943622E-06
   0.225068E+00   0.545248E+00   0.109767E+00
  -0.434674E+00  -0.117089E+00   0.396672E+00
  -0.434442E+00   0.117029E+00   0.396943E+00
  -0.408215E+00  -0.315863E-07   0.439727E+00
   0.425757E+00   0.193667E-04  -0.418081E+00
   0.388623E+00   0.111752E+00  -0.443265E+00
   0.388402E+00  -0.111780E+00  -0.443451E+00
  -0.291619E+00   0.229200E+00   0.471620E+00
  -0.361526E+00   0.116962E+00   0.464348E+00
  -0.293203E+00   0.322073E+00   0.412675E+00
   0.407220E+00   0.310715E+00  -0.312455E+00
   0.451879E+00   0.111969E+00  -0.378508E+00
   0.457314E+00   0.220353E+00  -0.309781E+00
  -0.360833E+00  -0.464356E+00   0.119051E+00
  -0.268382E+00  -0.524364E+00   0.114077E+00
  -0.248029E+00  -0.546335E+00  -0.198068E-05
   0.138244E+00  -0.445737E+00  -0.377104E+00
   0.278342E-01  -0.529398E+00  -0.269847E+00
   0.135472E+00  -0.507392E+00  -0.290174E+00
  -0.870029E-01   0.385040E+00   0.451857E+00
  -0.201925E+00   0.317208E+00   0.467553E+00
  -0.870049E-01   0.452842E+00   0.383881E+00
   0.387626E+00   0.443639E+00  -0.113711E+00
   0.456112E+00   0.306457E+00  -0.225705E+00
   0.451057E+00   0.378896E+00  -0.113953E+00
  -0.383201E+00  -0.325476E+00   0.327448E+00
  -0.291979E+00  -0.413082E+00   0.322663E+00
  -0.287426E+00  -0.473117E+00   0.231400E+00
   0.327461E+00  -0.309889E+00  -0.395902E+00
   0.241733E+00  -0.451767E+00  -0.303636E+00
   0.326162E+00  -0.396582E+00  -0.310389E+00
   0.135488E+00   0.507387E+00   0.290175E+00
   0.278616E-01   0.420194E+00   0.420212E+00
   0.138250E+00   0.445734E+00   0.377105E+00
   0.425785E+00   0.417971E+00  -0.820019E-05
   0.387632E+00   0.443636E+00   0.113702E+00
   0.305835E+00   0.504297E+00   0.110223E+00
  -0.361797E+00  -0.117034E+00   0.464118E+00
  -0.291851E+00  -0.229297E+00   0.471430E+00
  -0.293470E+00  -0.322149E+00   0.412426E+00
   0.451691E+00  -0.111981E+00  -0.378729E+00
   0.407026E+00  -0.310761E+00  -0.312662E+00
   0.457134E+00  -0.220390E+00  -0.309909E+00
  -0.271684E+00  -0.114017E+00   0.522674E+00
  -0.271731E+00   0.114008E+00   0.522651E+00
  -0.248004E+00  -0.441014E-06   0.546346E+00
   0.533886E+00   0.269710E-04  -0.273800E+00
   0.509587E+00   0.112289E+00  -0.296163E+00
   0.509632E+00  -0.112259E+00  -0.296096E+00
  -0.178349E+00  -0.561542E+00   0.113413E+00
  -0.666501E-01  -0.588648E+00   0.951394E-01
  -0.666528E-01  -0.588648E+00  -0.951388E-01
  -0.654228E-01  -0.590731E+00   0.109833E-05
   0.134798E+00  -0.547918E+00  -0.203999E+00
   0.276071E-01  -0.587006E+00  -0.930458E-01
   0.119450E+00  -0.580307E+00  -0.947390E-01
   0.241741E+00   0.451761E+00   0.303634E+00
   0.319776E+00   0.452122E+00   0.220825E+00
  -0.871033E-01   0.208003E+00   0.556010E+00
  -0.181936E+00   0.113462E+00   0.560380E+00
  -0.875302E-01   0.294681E+00   0.515268E+00
   0.510537E+00   0.293064E+00  -0.116040E+00
   0.550188E+00   0.112014E+00  -0.211533E+00
   0.550721E+00   0.208153E+00  -0.115665E+00
   0.138299E+00   0.378247E+00   0.444750E+00
   0.278674E-01   0.269841E+00   0.529424E+00
   0.138879E+00   0.290352E+00   0.506368E+00
  -0.198355E+00  -0.469872E+00   0.316030E+00
[...]
POINT_DATA  3000
SCALARS  vx_strength  double
LOOKUP_TABLE default
   0.184494E-02
   0.229110E-02
   0.442105E-02
   0.278221E-03
   0.345857E-02
   0.717552E-03
   0.166997E-02
   0.165235E-02
   0.300174E-02
   0.189471E-02
   0.315810E-02
   0.816022E-03
   0.533224E-02
   0.610869E-02
   0.389346E-02
   0.323892E-02
   0.234266E-02
   0.101537E-02
   0.272378E-03
   0.475913E-02
   0.567915E-02
   0.307569E-02
   0.293559E-02
   0.257573E-04
   0.304550E-02
   0.182479E-04
   0.231044E-02
   0.484595E-04
   0.454979E-02
   0.578026E-03
   0.154981E-02
   0.153093E-02
   0.162519E-02
   0.970877E-05
   0.177243E-03
   0.522765E-02
   0.305111E-02
   0.261713E-02
   0.386878E-03
   0.371241E-02
   0.540988E-02
   0.318700E-02
   0.420255E-05
   0.236022E-02
   0.314632E-02
   0.742304E-06
   0.404494E-02
   0.484678E-02
   0.455803E-02
   0.379654E-02
   0.166467E-02
   0.153595E-02
   0.115079E-06
   0.400242E-02
   0.406801E-02
   0.390968E-02
   0.184902E-02
   0.350709E-02
   0.350353E-03
   0.735606E-03
   0.964789E-05
   0.380038E-03
   0.474750E-02
   0.490835E-02
   0.374367E-02
   0.447949E-02
   0.165957E-02
   0.314015E-02
   0.192491E-02
   0.593987E-02
   0.308884E-02
   0.378890E-02
   0.808842E-05
   0.150527E-05
   0.419082E-04
   0.386708E-02
   0.219660E-04
   0.284151E-02
   0.542713E-02
   0.286585E-02
   0.385848E-02
   0.405707E-02
   0.399022E-02
   0.153820E-02
   0.165864E-02
   0.964048E-06
   0.394371E-02
   0.492141E-02
   0.411880E-02
   0.184603E-02
   0.308098E-02
   0.163127E-02
   0.194443E-02
   0.706739E-03
   0.128464E-02
   0.174740E-02
   0.949011E-03
   0.235582E-02
   0.474301E-02
   0.929224E-03
   0.277471E-03
   0.569156E-02
   0.289699E-02
   0.285843E-02
   0.944958E-03
   0.349009E-02
   0.271701E-03
   0.769490E-03
   0.169924E-02
   0.176528E-02
   0.163765E-02
   0.542641E-05
   0.380978E-06
   0.126350E-02
   0.940801E-05
   0.382710E-02
   0.368670E-02
   0.567286E-02
   0.318153E-02
   0.314491E-02
   0.235529E-02
   0.202540E-05
   0.142958E-02
   0.100931E-02
   0.180181E-02
   0.464108E-02
   0.401074E-02
   0.381482E-02
   0.304878E-02
   0.185125E-02
   0.193847E-02
   0.173524E-02
   0.732447E-03
   0.959857E-03
   0.407273E-03
   0.540128E-02
   0.371014E-02
   0.318652E-02
   0.397515E-02
   0.489167E-02
   0.404610E-02
   0.132639E-04
   0.144403E-02
   0.230328E-02
   0.227808E-02
   0.169963E-05
   0.135581E-04
   0.165072E-02
   0.164463E-02
   0.358187E-03
   0.454624E-02
   0.726316E-03
   0.133687E-02
   0.157253E-02
   0.109193E-02
   0.475242E-02
   0.377127E-03
   0.127194E-04
   0.375198E-02
   0.491451E-02
   0.446504E-02
   0.291540E-02
   0.594672E-02
   0.287209E-02
   0.171053E-02
   0.119684E-02
   0.170654E-02
   0.349982E-02
   0.931591E-03
   0.275855E-03
   0.170463E-02
   0.772928E-03
   0.175814E-02
   0.445573E-02
   0.401832E-02
   0.374697E-02
   0.269408E-05
   0.170666E-02
   0.182041E-02
   0.453725E-02
   0.346992E-03
   0.724591E-03
   0.158691E-02
   0.137175E-02
   0.107978E-02
   0.564880E-03
   0.565485E-03
   0.111605E-04
   0.141226E-04
   0.301632E-02
   0.304201E-02
   0.542013E-02
   0.283494E-02
   0.285864E-02
   0.197530E-04
   0.405613E-02
   0.385761E-02
   0.398599E-02
   0.765362E-03
   0.101632E-02
   0.309037E-02
   0.523056E-02
   0.379721E-02
   0.310034E-02
   0.300552E-02
   0.302859E-02
   0.382335E-02
   0.492129E-02
   0.465395E-02
   0.567326E-02
   0.368113E-02
   0.317109E-02
   0.433699E-05
   0.311160E-02
   0.170524E-02
   0.102408E-02
   0.143496E-02
   0.180835E-02
   0.383256E-02
   0.529577E-05
   0.269214E-02
   0.525371E-02
   0.270524E-02
   0.175132E-04
   0.335292E-05
   0.298382E-02
   0.312754E-02
   0.312757E-02
   0.594677E-02
   0.290155E-02
   0.284730E-02
   0.119073E-02
   0.171626E-02
   0.170316E-02
   0.734967E-03
   0.176349E-02
   0.171133E-02
   0.134896E-02
   0.119041E-02
   0.306741E-02
   0.376154E-02
   0.302010E-02
   0.309507E-02
   0.394059E-02
   0.412240E-02
   0.396022E-02
   0.240855E-05
   0.312895E-02
   0.301886E-02
   0.489405E-02
   0.404700E-02
   0.397507E-02
   0.144812E-02
   0.133460E-04
   0.392672E-02
   0.364064E-05
   0.264389E-04
   0.254946E-04
   0.125358E-02
   0.965032E-03
   0.173279E-02
   0.301584E-02
   0.109521E-02
   0.299564E-02
   0.402759E-02
   0.376859E-02
   0.444848E-02
   0.182761E-02
   0.171423E-02
   0.891214E-06
   0.165134E-02
   0.158117E-02
   0.393890E-02
   0.491369E-02
   0.411880E-02
   0.738231E-05
   0.301539E-02
   0.318006E-02
   0.465576E-02
   0.383074E-02
   0.169493E-02
   0.309473E-02
   0.775002E-03
   0.103482E-02
   0.762986E-05
   0.122097E-02
   0.123435E-04
   0.299690E-02
   0.103866E-04
   0.169149E-02
   0.166683E-02
   0.302694E-02
   0.157114E-02
   0.749395E-03
   0.172075E-02
   0.175662E-02
   0.136252E-02
   0.120218E-02
   0.967468E-03
   0.108697E-02
   0.196049E-02
   0.234748E-02
   0.461579E-02
   0.301379E-03
   0.340329E-02
   0.859509E-03
   0.169965E-02
   0.169345E-02
   0.298311E-02
   0.198091E-02
   0.319435E-02
   0.801568E-03
   0.559376E-02
   0.642017E-02
   0.447564E-02
   0.369443E-02
   0.242868E-02
   0.100254E-02
   0.346113E-03
   0.478970E-02
   0.617420E-02
   0.365377E-02
   0.356986E-02
   0.700477E-04
   0.306563E-02
   0.300988E-04
   0.240253E-02
   0.118360E-03
   0.460211E-02
   0.557795E-03
   0.156680E-02
   0.154200E-02
   0.164344E-02
   0.714145E-05
   0.187490E-03
   0.571617E-02
   0.336681E-02
   0.307980E-02
   0.393813E-03
   0.433235E-02
   0.589598E-02
   0.377177E-02
   0.115643E-04
   0.244826E-02
   0.318871E-02
   0.711470E-06
   0.507637E-02
   0.579766E-02
   0.585661E-02
   0.508883E-02
   0.169878E-02
   0.155137E-02
   0.530992E-05
   0.464629E-02
   0.496817E-02
   0.467543E-02
   0.196754E-02
   0.344859E-02
   0.417843E-03
   0.719033E-03
   0.716092E-05
   0.382585E-03
   0.477586E-02
   0.581776E-02
   0.499091E-02
   0.566510E-02
   0.170031E-02
   0.318159E-02
   0.201080E-02
   0.641905E-02
   0.363528E-02
   0.436992E-02
   0.456831E-05
   0.273678E-05
   0.823853E-07
   0.445872E-02
   0.503382E-05
   0.337781E-02
   0.592866E-02
   0.335730E-02
   0.442826E-02
   0.481256E-02
   0.456420E-02
   0.155304E-02
   0.169914E-02
   0.621853E-05
   0.465725E-02
   0.579177E-02
   0.497694E-02
   0.196208E-02
   0.309620E-02
   0.165207E-02
   0.203095E-02
   0.127532E-02
   0.138866E-02
   0.207830E-02
   0.144876E-02
   0.243883E-02
   0.477988E-02
   0.919401E-03
   0.354399E-03
   0.618381E-02
   0.352407E-02
   0.350803E-02
   0.927432E-03
   0.343018E-02
   0.353032E-03
   0.129301E-02
   0.235526E-02
   0.239581E-02
   0.165464E-02
   0.615474E-05
   0.590706E-05
   0.136546E-02
   0.443439E-05
   0.442766E-02
   0.433072E-02
   0.618209E-02
   0.379203E-02
   0.318690E-02
   0.244849E-02
   0.489943E-05
   0.141501E-02
   0.150515E-02
   0.208284E-02
   0.588034E-02
   0.502678E-02
   0.508784E-02
   0.306644E-02
   0.197067E-02
   0.202184E-02
   0.205073E-02
   0.129278E-02
   0.144911E-02
   0.401275E-03
   0.589226E-02
   0.433590E-02
   0.377637E-02
   0.455876E-02
   0.580992E-02
   0.479662E-02
   0.301077E-05
   0.140855E-02
   0.237274E-02
   0.235111E-02
   0.150340E-05
   0.891145E-05
   0.212761E-02
   0.213390E-02
   0.413294E-03
   0.461591E-02
   0.727018E-03
   0.184297E-02
   0.185498E-02
   0.124521E-02
   0.477973E-02
   0.380105E-03
   0.106094E-04
   0.497374E-02
   0.581651E-02
   0.564514E-02
   0.352591E-02
   0.641830E-02
   0.350822E-02
   0.221374E-02
   0.135811E-02
   0.198520E-02
   0.343932E-02
   0.919345E-03
   0.359698E-03
   0.236073E-02
   0.128127E-02
   0.238809E-02
   0.563998E-02
   0.502793E-02
   0.497383E-02
   0.255074E-06
   0.221461E-02
   0.208571E-02
   0.460743E-02
   0.399742E-03
   0.721559E-03
   0.186522E-02
   0.186840E-02
   0.123882E-02
   0.563354E-03
   0.558193E-03
   0.678563E-05
   0.117829E-04
   0.339923E-02
   0.342032E-02
   0.592480E-02
   0.337280E-02
   0.335643E-02
   0.443934E-05
   0.480709E-02
   0.442292E-02
   0.455835E-02
   0.127901E-02
   0.150528E-02
   0.360379E-02
   0.569163E-02
   0.436545E-02
   0.347369E-02
   0.269904E-02
   0.273329E-02
   0.509574E-02
   0.578392E-02
   0.588657E-02
   0.617990E-02
   0.432075E-02
   0.378675E-02
   0.452172E-05
   0.348419E-02
   0.198164E-02
   0.151430E-02
   0.141167E-02
   0.209082E-02
   0.442487E-02
   0.639238E-05
   0.313228E-02
   0.572153E-02
   0.311881E-02
   0.840220E-05
   0.179813E-05
   0.268009E-02
   0.272004E-02
   0.272240E-02
   0.642084E-02
   0.351790E-02
   0.349264E-02
   0.135417E-02
   0.221938E-02
   0.198024E-02
   0.129438E-02
   0.239443E-02
   0.236806E-02
   0.184937E-02
   0.135156E-02
   0.360435E-02
   0.434878E-02
   0.272125E-02
   0.347462E-02
   0.451465E-02
   0.498335E-02
   0.467469E-02
   0.199236E-05
   0.272045E-02
   0.272476E-02
   0.579793E-02
   0.478399E-02
   0.455605E-02
   0.140555E-02
   0.300630E-05
   0.452400E-02
   0.177491E-04
   0.209384E-04
   0.211326E-04
   0.137015E-02
   0.145931E-02
   0.206053E-02
   0.338866E-02
   0.125171E-02
   0.269503E-02
   0.503070E-02
   0.498011E-02
   0.561989E-02
   0.209551E-02
   0.222109E-02
   0.171180E-05
   0.213537E-02
   0.186176E-02
   0.467915E-02
   0.578615E-02
   0.498577E-02
   0.760748E-05
   0.272661E-02
   0.275630E-02
   0.589118E-02
   0.509690E-02
   0.196810E-02
   0.347447E-02
   0.127889E-02
   0.152070E-02
   0.940042E-05
   0.134069E-02
   0.165277E-04
   0.270948E-02
   0.359159E-05
   0.200994E-02
   0.216602E-02
   0.339148E-02
   0.184593E-02
   0.130823E-02
   0.237943E-02
   0.238904E-02
   0.185172E-02
   0.136545E-02
   0.145249E-02
   0.125134E-02
   0.207340E-02
   0.252378E-02
   0.477133E-02
   0.106839E-03
   0.338323E-02
   0.130583E-02
   0.172612E-02
   0.172848E-02
   0.301174E-02
   0.206709E-02
   0.327285E-02
   0.889383E-03
   0.559825E-02
   0.618899E-02
   0.410800E-02
   0.348614E-02
   0.259547E-02
   0.139454E-02
   0.638547E-04
   0.478226E-02
   0.605724E-02
   0.330127E-02
   0.330563E-02
   0.104486E-03
   0.314626E-02
   0.291422E-04
   0.257278E-02
   0.805970E-04
   0.459917E-02
   0.815859E-03
   0.160421E-02
   0.157998E-02
   0.168083E-02
   0.771163E-05
   0.103444E-03
   0.580376E-02
   0.304540E-02
   0.302332E-02
   0.682633E-03
   0.413807E-02
   0.600766E-02
   0.378827E-02
   0.227041E-05
   0.260935E-02
   0.325828E-02
   0.210266E-05
   0.541519E-02
   0.611000E-02
   0.672212E-02
   0.594327E-02
   0.172046E-02
   0.159749E-02
   0.592006E-05
   0.490301E-02
   0.565189E-02
   0.544879E-02
   0.204942E-02
   0.339818E-02
   0.198851E-03
   0.109735E-02
   0.248266E-05
   0.700794E-03
   0.476523E-02
   0.625882E-02
   0.584732E-02
   0.662099E-02
   0.171863E-02
   0.324266E-02
   0.213147E-02
   0.632603E-02
   0.358458E-02
   0.411059E-02
   0.452927E-05
   0.273770E-05
   0.138562E-04
   0.481342E-02
   0.128882E-04
   0.339094E-02
   0.602272E-02
   0.335217E-02
   0.480799E-02
   0.553710E-02
   0.533499E-02
   0.159610E-02
   0.171350E-02
   0.537617E-05
   0.546778E-02
   0.611103E-02
   0.565977E-02
   0.204273E-02
   0.317256E-02
   0.169677E-02
   0.214348E-02
   0.187950E-02
   0.168824E-02
   0.260217E-02
   0.211340E-02
   0.260351E-02
   0.477838E-02
   0.131385E-02
   0.654388E-04
   0.607651E-02
   0.327953E-02
   0.327340E-02
   0.131619E-02
   0.337924E-02
   0.667242E-04
   0.197424E-02
   0.319812E-02
   0.330227E-02
   0.170034E-02
   0.478339E-05
   0.232656E-05
   0.169062E-02
   0.302878E-04
   0.485116E-02
   0.417560E-02
   0.608607E-02
   0.382450E-02
   0.325755E-02
   0.260688E-02
   0.778843E-05
   0.167487E-02
   0.224318E-02
   0.258275E-02
   0.672932E-02
   0.538693E-02
   0.593957E-02
   0.314105E-02
   0.205061E-02
   0.213902E-02
   0.258917E-02
   0.189104E-02
   0.210711E-02
   0.694794E-03
   0.600670E-02
   0.415420E-02
   0.379320E-02
   0.537461E-02
   0.628151E-02
   0.554418E-02
   0.319498E-05
   0.167641E-02
   0.253059E-02
   0.250902E-02
   0.114354E-05
   0.244972E-05
   0.236458E-02
   0.237593E-02
   0.192062E-03
   0.463097E-02
   0.111625E-02
   0.206140E-02
   0.220008E-02
   0.149897E-02
   0.476877E-02
   0.696535E-03
   0.172248E-05
   0.582701E-02
   0.626793E-02
   0.660111E-02
   0.328038E-02
   0.631452E-02
   0.328080E-02
   0.248918E-02
   0.161969E-02
   0.232025E-02
   0.338570E-02
   0.130590E-02
   0.705597E-04
   0.320565E-02
   0.195187E-02
   0.329308E-02
   0.661488E-02
   0.538443E-02
   0.583205E-02
   0.107966E-05
   0.249259E-02
   0.258505E-02
   0.462412E-02
   0.179713E-03
   0.111378E-02
   0.220801E-02
   0.207590E-02
   0.149724E-02
   0.821222E-03
   0.800270E-03
   0.342447E-05
   0.996576E-05
   0.361568E-02
   0.362858E-02
   0.602601E-02
   0.338828E-02
   0.334882E-02
   0.106469E-04
   0.553584E-02
   0.480807E-02
   0.532996E-02
   0.196205E-02
   0.224298E-02
   0.354292E-02
   0.578183E-02
   0.409877E-02
   0.368683E-02
   0.249095E-02
   0.253195E-02
   0.594058E-02
   0.608843E-02
   0.671914E-02
   0.609004E-02
   0.417306E-02
   0.382164E-02
   0.364434E-05
   0.369491E-02
   0.231606E-02
   0.224258E-02
   0.167295E-02
   0.258877E-02
   0.484953E-02
   0.308127E-04
   0.302856E-02
   0.579931E-02
   0.300779E-02
   0.325868E-05
   0.228973E-05
   0.247314E-02
   0.247378E-02
   0.247672E-02
   0.632270E-02
   0.327139E-02
   0.325993E-02
   0.161110E-02
   0.248748E-02
   0.231572E-02
   0.188531E-02
   0.330638E-02
   0.321058E-02
   0.206032E-02
   0.161609E-02
   0.355663E-02
   0.409922E-02
   0.252449E-02
   0.368593E-02
   0.480776E-02
   0.565242E-02
   0.544733E-02
   0.211541E-05
   0.247263E-02
   0.252576E-02
   0.627176E-02
   0.552954E-02
   0.536849E-02
   0.167254E-02
   0.288420E-05
   0.483534E-02
   0.308318E-04
   0.140617E-04
   0.138873E-04
   0.168748E-02
   0.211770E-02
   0.259622E-02
   0.359476E-02
   0.150884E-02
   0.249591E-02
   0.537943E-02
   0.582744E-02
   0.658417E-02
   0.259153E-02
   0.249280E-02
   0.318192E-05
   0.237697E-02
   0.220572E-02
   0.548918E-02
   0.610624E-02
   0.567816E-02
   0.916944E-05
   0.254476E-02
   0.248657E-02
   0.673491E-02
   0.593872E-02
   0.229981E-02
   0.368554E-02
   0.194561E-02
   0.224699E-02
   0.250616E-05
   0.168934E-02
   0.178027E-04
   0.252227E-02
   0.591590E-05
   0.256490E-02
   0.241688E-02
   0.359173E-02
   0.218209E-02
   0.189652E-02
   0.322329E-02
   0.329597E-02
   0.205369E-02
   0.162337E-02
   0.210566E-02
   0.151239E-02
   0.209492E-02
   0.264362E-02
   0.482548E-02
   0.785556E-04
   0.345190E-02
   0.160309E-02
   0.177170E-02
   0.175378E-02
   0.309173E-02
   0.208571E-02
   0.333832E-02
   0.732360E-03
   0.537563E-02
   0.552348E-02
   0.300006E-02
   0.264933E-02
   0.267462E-02
   0.168674E-02
   0.240389E-03
   0.474453E-02
   0.541862E-02
   0.223022E-02
   0.226852E-02
   0.692290E-04
   0.321430E-02
   0.145760E-04
   0.263973E-02
   0.391149E-04
   0.457573E-02
   0.949890E-03
   0.167084E-02
   0.165074E-02
   0.172094E-02
   0.227799E-05
   0.454382E-04
   0.545235E-02
   0.235167E-02
   0.243089E-02
   0.809144E-03
   0.312544E-02
   0.566070E-02
   0.301931E-02
   0.676744E-05
   0.267520E-02
   0.333736E-02
   0.701400E-05
   0.462961E-02
   0.531137E-02
   0.620603E-02
   0.550804E-02
   0.177546E-02
   0.167055E-02
   0.101699E-04
   0.455754E-02
   0.527931E-02
   0.542819E-02
   0.205993E-02
   0.344572E-02
   0.689004E-04
   0.139579E-02
   0.238440E-04
   0.846492E-03
   0.473130E-02
   0.557825E-02
   0.545896E-02
   0.628298E-02
   0.177785E-02
   0.332042E-02
   0.212006E-02
   0.573026E-02
   0.280548E-02
   0.310595E-02
   0.997348E-06
   0.689456E-05
   0.342627E-04
   0.454637E-02
   0.103965E-05
   0.280308E-02
   0.562870E-02
   0.280508E-02
   0.462552E-02
   0.531831E-02
   0.544303E-02
   0.166829E-02
   0.177542E-02
   0.476307E-05
   0.549115E-02
   0.535554E-02
   0.531622E-02
   0.205755E-02
   0.323568E-02
   0.172955E-02
   0.212839E-02
   0.162570E-02
   0.145861E-02
   0.279183E-02
   0.230414E-02
   0.267850E-02
   0.474283E-02
   0.167579E-02
   0.254458E-03
   0.541285E-02
   0.228336E-02
   0.227172E-02
   0.167862E-02
   0.342553E-02
   0.255196E-03
   0.184429E-02
   0.346424E-02
   0.365542E-02
   0.173007E-02
   0.582841E-05
   0.225357E-04
   0.149932E-02
   0.378695E-04
   0.466443E-02
   0.317439E-02
   0.542744E-02
   0.303809E-02
   0.333625E-02
   0.267635E-02
   0.489006E-05
   0.151973E-02
   0.253293E-02
   0.283002E-02
   0.622555E-02
   0.462892E-02
   0.551688E-02
   0.320582E-02
   0.206869E-02
   0.211989E-02
   0.281435E-02
   0.163281E-02
   0.230322E-02
   0.812352E-03
   0.565258E-02
   0.314583E-02
   0.302309E-02
   0.550879E-02
   0.561324E-02
   0.535027E-02
   0.108833E-04
   0.154416E-02
   0.259356E-02
   0.257484E-02
   0.106037E-05
   0.255907E-05
   0.266546E-02
   0.266874E-02
   0.826558E-04
   0.461279E-02
   0.142414E-02
   0.241012E-02
   0.246534E-02
   0.164542E-02
   0.472988E-02
   0.845684E-03
   0.192595E-04
   0.545017E-02
   0.558981E-02
   0.627356E-02
   0.228504E-02
   0.571444E-02
   0.228137E-02
   0.278822E-02
   0.175823E-02
   0.256781E-02
   0.342958E-02
   0.167037E-02
   0.248313E-03
   0.347035E-02
   0.181564E-02
   0.364414E-02
   0.629512E-02
   0.462794E-02
   0.545630E-02
   0.232744E-06
   0.278707E-02
   0.284652E-02
   0.461211E-02
   0.934200E-04
   0.142072E-02
   0.247540E-02
   0.241639E-02
   0.165302E-02
   0.930942E-03
   0.899921E-03
   0.157159E-04
   0.659615E-05
   0.370111E-02
   0.370780E-02
   0.563062E-02
   0.280454E-02
   0.280202E-02
   0.616902E-06
   0.532599E-02
   0.462442E-02
   0.544157E-02
   0.183880E-02
   0.253796E-02
   0.277846E-02
   0.547744E-02
   0.309714E-02
   0.378828E-02
   0.236140E-02
   0.240254E-02
   0.551188E-02
   0.533344E-02
   0.620481E-02
   0.543662E-02
   0.318571E-02
   0.304682E-02
   0.221909E-05
   0.379060E-02
   0.256825E-02
   0.252548E-02
   0.151493E-02
   0.283243E-02
   0.466165E-02
   0.366161E-04
   0.241159E-02
   0.547345E-02
   0.241192E-02
   0.130950E-04
   0.157296E-05
   0.234738E-02
   0.232957E-02
   0.233390E-02
   0.572594E-02
   0.227561E-02
   0.226572E-02
   0.175533E-02
   0.278801E-02
   0.256547E-02
   0.162376E-02
   0.366740E-02
   0.347422E-02
   0.240269E-02
   0.175844E-02
   0.279022E-02
   0.311038E-02
   0.239685E-02
   0.378749E-02
   0.451885E-02
   0.529635E-02
   0.544589E-02
   0.172386E-05
   0.232584E-02
   0.240094E-02
   0.561417E-02
   0.534370E-02
   0.550463E-02
   0.153705E-02
   0.965926E-05
   0.453370E-02
   0.279484E-04
   0.621962E-05
   0.637053E-05
   0.148482E-02
   0.230820E-02
   0.280856E-02
   0.366912E-02
   0.165893E-02
   0.237586E-02
   0.462132E-02
   0.544963E-02
   0.627076E-02
   0.284769E-02
   0.278965E-02
   0.269548E-05
   0.267235E-02
   0.247221E-02