# vtk DataFile Version 2.0
This file was created by Fortran
ASCII
DATASET UNSTRUCTURED_GRID
POINTS  1200  DOUBLE
  -0.446250E+00   0.232461E+00  -0.326838E+00
  -0.434687E+00   0.117093E+00  -0.396656E+00
  -0.361753E+00   0.117048E+00  -0.464149E+00
  -0.291765E+00   0.229360E+00  -0.471452E+00
  -0.383174E+00   0.325570E+00  -0.327387E+00
  -0.293400E+00   0.322256E+00  -0.412393E+00
  -0.546471E+00   0.216464E+00  -0.120470E+00
  -0.545921E+00   0.116694E+00  -0.219892E+00
  -0.500400E+00   0.117199E+00  -0.309620E+00
  -0.445336E+00   0.323797E+00  -0.238393E+00
  -0.501374E+00   0.306527E+00  -0.121101E+00
  -0.271238E+00   0.114041E+00  -0.522900E+00
  -0.181275E+00   0.113483E+00  -0.560590E+00
  -0.201407E+00   0.317304E+00  -0.467711E+00
  -0.865156E-01   0.294771E+00  -0.515388E+00
  -0.860638E-01   0.207943E+00  -0.556195E+00
  -0.433616E+00   0.397195E+00  -0.119221E+00
  -0.291610E+00   0.413232E+00  -0.322804E+00
  -0.286975E+00   0.473331E+00  -0.231524E+00
  -0.360490E+00   0.464601E+00  -0.119135E+00
  -0.197814E+00   0.470040E+00  -0.316121E+00
  -0.860711E-01   0.385203E+00  -0.451896E+00
  -0.860547E-01   0.452908E+00  -0.384017E+00
  -0.407926E+00  -0.386889E-05  -0.439996E+00
  -0.500429E+00  -0.117208E+00  -0.309569E+00
  -0.527743E+00  -0.606651E-05  -0.285460E+00
  -0.434421E+00  -0.117170E+00  -0.396925E+00
  -0.247457E+00  -0.128511E-04  -0.546594E+00
  -0.361446E+00  -0.117113E+00  -0.464372E+00
  -0.271177E+00  -0.114043E+00  -0.522931E+00
  -0.583022E+00  -0.100219E+00  -0.100205E+00
  -0.583024E+00   0.100209E+00  -0.100205E+00
  -0.545942E+00  -0.116705E+00  -0.219833E+00
  -0.591796E+00  -0.593828E-05  -0.988785E-01
  -0.648724E-01  -0.962607E-05  -0.596483E+00
  -0.181206E+00  -0.113500E+00  -0.560609E+00
  -0.655127E-01   0.949565E-01  -0.588805E+00
  -0.654983E-01  -0.949732E-01  -0.588804E+00
  -0.267859E+00   0.524624E+00  -0.114112E+00
  -0.828542E-01   0.516183E+00  -0.294433E+00
  -0.177673E+00   0.561749E+00  -0.113446E+00
  -0.824200E-01   0.556844E+00  -0.207681E+00
  -0.407941E+00   0.439982E+00   0.383196E-05
  -0.433614E+00   0.397196E+00   0.119224E+00
  -0.501376E+00   0.306523E+00   0.121103E+00
  -0.527748E+00   0.285451E+00   0.449148E-05
   0.293550E-01   0.419921E+00  -0.419920E+00
   0.293826E-01   0.269566E+00  -0.528977E+00
   0.141940E+00   0.290197E+00  -0.505607E+00
   0.141369E+00   0.377733E+00  -0.444221E+00
  -0.546472E+00   0.216460E+00   0.120474E+00
  -0.583022E+00   0.100213E+00   0.100214E+00
  -0.591795E+00   0.988849E-01   0.457165E-05
   0.292335E-01   0.928384E-01  -0.586440E+00
   0.141301E+00   0.203744E+00  -0.546372E+00
   0.122320E+00   0.947039E-01  -0.579715E+00
  -0.446032E+00  -0.232558E+00  -0.327066E+00
  -0.382894E+00  -0.325643E+00  -0.327641E+00
  -0.291385E+00  -0.229401E+00  -0.471668E+00
  -0.293078E+00  -0.322288E+00  -0.412596E+00
  -0.247472E+00   0.546587E+00   0.288639E-05
  -0.267857E+00   0.524623E+00   0.114118E+00
  -0.360488E+00   0.464601E+00   0.119138E+00
   0.293725E-01   0.528951E+00  -0.269548E+00
   0.141351E+00   0.445190E+00  -0.376598E+00
   0.138536E+00   0.506660E+00  -0.290006E+00
  -0.546484E+00  -0.216466E+00  -0.120408E+00
  -0.501388E+00  -0.306529E+00  -0.121038E+00
  -0.445358E+00  -0.323809E+00  -0.238337E+00
  -0.201338E+00  -0.317311E+00  -0.467736E+00
  -0.859788E-01  -0.207937E+00  -0.556210E+00
  -0.864313E-01  -0.294771E+00  -0.515402E+00
  -0.591795E+00  -0.988889E-01   0.343780E-05
  -0.591795E+00  -0.238685E-05   0.988857E-01
   0.119731E+00   0.260169E-05  -0.583211E+00
   0.292484E-01  -0.928301E-01  -0.586430E+00
  -0.648816E-01   0.596482E+00   0.111484E-05
  -0.655371E-01   0.588800E+00   0.949713E-01
  -0.177671E+00   0.561749E+00   0.113449E+00
  -0.655383E-01   0.588800E+00  -0.949715E-01
   0.292229E-01   0.586436E+00  -0.928413E-01
   0.137869E+00   0.547295E+00  -0.203618E+00
   0.122311E+00   0.579716E+00  -0.947093E-01
  -0.583022E+00  -0.100215E+00   0.100213E+00
  -0.546483E+00  -0.216466E+00   0.120412E+00
  -0.527748E+00  -0.285451E+00   0.334928E-05
   0.122337E+00  -0.946957E-01  -0.579712E+00
   0.294101E-01  -0.269563E+00  -0.528966E+00
   0.141273E+00  -0.203740E+00  -0.546381E+00
  -0.445811E+00   0.232510E+00   0.327401E+00
  -0.500404E+00   0.117197E+00   0.309613E+00
  -0.545921E+00   0.116694E+00   0.219894E+00
  -0.445337E+00   0.323796E+00   0.238392E+00
   0.249092E+00   0.303133E+00  -0.447003E+00
   0.232665E+00   0.109395E+00  -0.542125E+00
   0.314609E+00   0.109736E+00  -0.498978E+00
   0.329635E+00   0.216683E+00  -0.446270E+00
  -0.433616E+00  -0.397195E+00  -0.119221E+00
  -0.360490E+00  -0.464601E+00  -0.119134E+00
  -0.291605E+00  -0.413236E+00  -0.322804E+00
  -0.286976E+00  -0.473330E+00  -0.231524E+00
  -0.197812E+00  -0.470040E+00  -0.316122E+00
  -0.860541E-01  -0.385209E+00  -0.451895E+00
  -0.860499E-01  -0.452910E+00  -0.384015E+00
  -0.291604E+00   0.413237E+00   0.322804E+00
  -0.382679E+00   0.325613E+00   0.327922E+00
  -0.286972E+00   0.473333E+00   0.231524E+00
   0.245866E+00   0.449531E+00  -0.302177E+00
   0.333769E+00   0.307645E+00  -0.392368E+00
   0.332204E+00   0.393243E+00  -0.308221E+00
  -0.545942E+00  -0.116702E+00   0.219837E+00
  -0.527744E+00  -0.131454E-05   0.285458E+00
   0.290404E+00   0.892865E-05  -0.520946E+00
   0.232626E+00  -0.109390E+00  -0.542143E+00
   0.119736E+00   0.583207E+00  -0.336272E-06
   0.292249E-01   0.586429E+00   0.928394E-01
  -0.828500E-01   0.516182E+00   0.294434E+00
  -0.197807E+00   0.470042E+00   0.316122E+00
  -0.824170E-01   0.556844E+00   0.207682E+00
  -0.501387E+00  -0.306529E+00   0.121041E+00
  -0.433614E+00  -0.397196E+00   0.119225E+00
  -0.407942E+00  -0.439981E+00   0.370534E-05
   0.229357E+00   0.543520E+00  -0.109458E+00
   0.325174E+00   0.447949E+00  -0.218663E+00
   0.311580E+00   0.500840E+00  -0.109898E+00
   0.141908E+00  -0.290201E+00  -0.505614E+00
   0.293669E-01  -0.419930E+00  -0.419921E+00
   0.141388E+00  -0.377736E+00  -0.444213E+00
  -0.500433E+00  -0.117206E+00   0.309564E+00
  -0.446031E+00  -0.232561E+00   0.327066E+00
  -0.445356E+00  -0.323810E+00   0.238338E+00
   0.314578E+00  -0.109720E+00  -0.499001E+00
   0.249049E+00  -0.303122E+00  -0.446987E+00
   0.329372E+00  -0.216729E+00  -0.446488E+00
  -0.267862E+00  -0.524622E+00  -0.114113E+00
  -0.177677E+00  -0.561748E+00  -0.113447E+00
  -0.828561E-01  -0.516182E+00  -0.294433E+00
  -0.824255E-01  -0.556843E+00  -0.207683E+00
   0.122315E+00   0.579715E+00   0.947061E-01
   0.293759E-01   0.528949E+00   0.269548E+00
   0.137875E+00   0.547294E+00   0.203616E+00
   0.290420E+00   0.520919E+00  -0.270755E-05
   0.229359E+00   0.543520E+00   0.109456E+00
  -0.434425E+00  -0.117172E+00   0.396920E+00
  -0.434196E+00   0.117109E+00   0.397189E+00
  -0.407925E+00  -0.377866E-05   0.439997E+00
   0.432918E+00   0.121654E-04  -0.410801E+00
   0.395499E+00   0.110104E+00  -0.437559E+00
   0.395263E+00  -0.110137E+00  -0.437764E+00
  -0.291157E+00   0.229305E+00   0.471855E+00
  -0.361171E+00   0.117038E+00   0.464605E+00
  -0.292817E+00   0.322218E+00   0.412836E+00
   0.414183E+00   0.306098E+00  -0.307826E+00
   0.458829E+00   0.110093E+00  -0.370615E+00
   0.464828E+00   0.215435E+00  -0.303461E+00
  -0.360487E+00  -0.464602E+00   0.119139E+00
  -0.267858E+00  -0.524623E+00   0.114119E+00
  -0.247474E+00  -0.546586E+00   0.300798E-05
   0.141356E+00  -0.445194E+00  -0.376591E+00
   0.293686E-01  -0.528957E+00  -0.269552E+00
   0.138531E+00  -0.506662E+00  -0.290005E+00
  -0.860557E-01   0.385208E+00   0.451895E+00
  -0.201392E+00   0.317298E+00   0.467721E+00
  -0.860471E-01   0.452910E+00   0.384016E+00
   0.394482E+00   0.437974E+00  -0.112083E+00
   0.463592E+00   0.300303E+00  -0.220680E+00
   0.457961E+00   0.371086E+00  -0.112100E+00
  -0.382891E+00  -0.325646E+00   0.327642E+00
  -0.291602E+00  -0.413236E+00   0.322806E+00
  -0.286971E+00  -0.473332E+00   0.231527E+00
   0.333530E+00  -0.307669E+00  -0.392552E+00
   0.245870E+00  -0.449529E+00  -0.302166E+00
   0.332213E+00  -0.393245E+00  -0.308209E+00
   0.138538E+00   0.506660E+00   0.290006E+00
   0.293663E-01   0.419928E+00   0.419922E+00
   0.141357E+00   0.445192E+00   0.376593E+00
   0.432955E+00   0.410766E+00  -0.420883E-05
   0.394485E+00   0.437973E+00   0.112076E+00
   0.311582E+00   0.500839E+00   0.109893E+00
  -0.361439E+00  -0.117117E+00   0.464376E+00
  -0.291381E+00  -0.229403E+00   0.471669E+00
  -0.293076E+00  -0.322289E+00   0.412597E+00
   0.458626E+00  -0.110140E+00  -0.370852E+00
   0.413970E+00  -0.306158E+00  -0.308052E+00
   0.464617E+00  -0.215488E+00  -0.303624E+00
  -0.271167E+00  -0.114044E+00   0.522936E+00
  -0.271220E+00   0.114030E+00   0.522912E+00
  -0.247461E+00  -0.634695E-05   0.546592E+00
   0.535159E+00   0.774669E-05  -0.262854E+00
   0.515592E+00   0.108511E+00  -0.287037E+00
   0.515620E+00  -0.108507E+00  -0.286988E+00
  -0.177673E+00  -0.561748E+00   0.113451E+00
  -0.655405E-01  -0.588799E+00   0.949734E-01
  -0.655431E-01  -0.588799E+00  -0.949724E-01
  -0.648856E-01  -0.596481E+00   0.161504E-05
   0.137864E+00  -0.547296E+00  -0.203618E+00
   0.292172E-01  -0.586436E+00  -0.928421E-01
   0.122305E+00  -0.579717E+00  -0.947098E-01
   0.245873E+00   0.449526E+00   0.302169E+00
   0.325179E+00   0.447946E+00   0.218659E+00
  -0.860454E-01   0.207930E+00   0.556202E+00
  -0.181275E+00   0.113480E+00   0.560590E+00
  -0.864947E-01   0.294764E+00   0.515396E+00
   0.516460E+00   0.284085E+00  -0.112093E+00
   0.554111E+00   0.108151E+00  -0.203137E+00
   0.554595E+00   0.199904E+00  -0.111635E+00
   0.141384E+00   0.377734E+00   0.444215E+00
   0.294008E-01   0.269563E+00   0.528971E+00
   0.141957E+00   0.290194E+00   0.505604E+00
  -0.197807E+00  -0.470040E+00   0.316125E+00
[...]
POINT_DATA  1200
SCALARS  vx_strength  double
LOOKUP_TABLE default
   0.197711E-02
   0.311679E-02
   0.515177E-02
   0.250666E-03
   0.467925E-02
   0.922675E-03
   0.212818E-02
   0.199880E-02
   0.360547E-02
   0.218679E-02
   0.347558E-02
   0.118905E-02
   0.719031E-02
   0.775432E-02
   0.451075E-02
   0.418247E-02
   0.329783E-02
   0.103996E-02
   0.284599E-03
   0.542926E-02
   0.755856E-02
   0.331056E-02
   0.327175E-02
   0.521101E-04
   0.337503E-02
   0.695245E-04
   0.318511E-02
   0.189235E-03
   0.527402E-02
   0.138492E-02
   0.181138E-02
   0.182365E-02
   0.208427E-02
   0.837300E-05
   0.323472E-04
   0.690450E-02
   0.310730E-02
   0.300120E-02
   0.120788E-02
   0.431235E-02
   0.717293E-02
   0.418706E-02
   0.758885E-05
   0.329976E-02
   0.347278E-02
   0.811854E-05
   0.530365E-02
   0.638327E-02
   0.646037E-02
   0.555948E-02
   0.212740E-02
   0.183680E-02
   0.676227E-06
   0.478368E-02
   0.549843E-02
   0.544329E-02
   0.202674E-02
   0.475164E-02
   0.349419E-03
   0.875002E-03
   0.789235E-05
   0.121051E-02
   0.542715E-02
   0.628504E-02
   0.550728E-02
   0.624390E-02
   0.212831E-02
   0.348503E-02
   0.210658E-02
   0.779080E-02
   0.418953E-02
   0.456120E-02
   0.339645E-05
   0.565277E-05
   0.124562E-04
   0.473887E-02
   0.315866E-04
   0.335400E-02
   0.716245E-02
   0.339913E-02
   0.485684E-02
   0.527284E-02
   0.547422E-02
   0.182852E-02
   0.213190E-02
   0.117361E-04
   0.543109E-02
   0.641121E-02
   0.547165E-02
   0.203419E-02
   0.342248E-02
   0.204685E-02
   0.212678E-02
   0.152058E-02
   0.596393E-03
   0.224861E-02
   0.252772E-02
   0.328403E-02
   0.543973E-02
   0.109222E-02
   0.255800E-03
   0.753403E-02
   0.329697E-02
   0.328863E-02
   0.107525E-02
   0.473653E-02
   0.273827E-03
   0.178231E-02
   0.402942E-02
   0.425663E-02
   0.205589E-02
   0.725962E-05
   0.882256E-05
   0.590090E-03
   0.145139E-04
   0.481074E-02
   0.433047E-02
   0.755422E-02
   0.418799E-02
   0.346898E-02
   0.329720E-02
   0.103000E-04
   0.627482E-03
   0.297741E-02
   0.245290E-02
   0.646457E-02
   0.529887E-02
   0.558528E-02
   0.338508E-02
   0.203836E-02
   0.211046E-02
   0.227787E-02
   0.151282E-02
   0.251577E-02
   0.120165E-02
   0.717280E-02
   0.430211E-02
   0.416775E-02
   0.546099E-02
   0.628980E-02
   0.528295E-02
   0.322497E-05
   0.629692E-03
   0.321243E-02
   0.317264E-02
   0.113456E-04
   0.105900E-04
   0.373854E-02
   0.368359E-02
   0.327177E-03
   0.525897E-02
   0.898516E-03
   0.315368E-02
   0.165385E-02
   0.978486E-03
   0.542708E-02
   0.121831E-02
   0.127654E-04
   0.550379E-02
   0.628059E-02
   0.626864E-02
   0.329382E-02
   0.776846E-02
   0.329241E-02
   0.362372E-02
   0.105046E-02
   0.177343E-02
   0.475240E-02
   0.107772E-02
   0.264629E-03
   0.397455E-02
   0.179405E-02
   0.425961E-02
   0.625228E-02
   0.530223E-02
   0.550379E-02
   0.328581E-05
   0.360491E-02
   0.246367E-02
   0.524742E-02
   0.329315E-03
   0.884943E-03
   0.169126E-02
   0.315396E-02
   0.100539E-02
   0.141587E-02
   0.138847E-02
   0.162044E-04
   0.228952E-05
   0.387645E-02
   0.385211E-02
   0.715375E-02
   0.334756E-02
   0.339624E-02
   0.319464E-04
   0.529186E-02
   0.485497E-02
   0.548039E-02
   0.179029E-02
   0.299465E-02
   0.417726E-02
   0.690302E-02
   0.454454E-02
   0.403621E-02
   0.196069E-02
   0.195139E-02
   0.558116E-02
   0.640197E-02
   0.646008E-02
   0.755176E-02
   0.432962E-02
   0.417813E-02
   0.564171E-05
   0.401178E-02
   0.179324E-02
   0.297904E-02
   0.632419E-03
   0.244935E-02
   0.480932E-02
   0.137037E-04
   0.300742E-02
   0.688430E-02
   0.300500E-02
   0.309236E-06
   0.564876E-05
   0.196495E-02
   0.224442E-02
   0.225044E-02
   0.776582E-02
   0.327111E-02
   0.328729E-02
   0.105560E-02
   0.362467E-02
   0.177670E-02
   0.152183E-02
   0.427427E-02
   0.401510E-02
   0.314330E-02
   0.106186E-02
   0.420722E-02
   0.456686E-02
   0.195410E-02
   0.403284E-02
   0.475371E-02
   0.547777E-02
   0.544879E-02
   0.206798E-05
   0.223344E-02
   0.197091E-02
   0.629868E-02
   0.530629E-02
   0.546853E-02
   0.634513E-03
   0.349479E-05
   0.475694E-02
   0.292227E-05
   0.173156E-04
   0.137348E-04
   0.614404E-03
   0.253527E-02
   0.229836E-02
   0.382130E-02
   0.993194E-03
   0.200415E-02
   0.528432E-02
   0.549685E-02
   0.627733E-02
   0.245228E-02
   0.361116E-02
   0.468378E-05
   0.368522E-02
   0.169084E-02
   0.545265E-02
   0.640986E-02
   0.545455E-02
   0.813334E-05
   0.203963E-02
   0.214229E-02
   0.646614E-02
   0.560055E-02
   0.178246E-02
   0.402187E-02
   0.180398E-02
   0.299566E-02
   0.250988E-05
   0.617223E-03
   0.614775E-04
   0.199179E-02
   0.536556E-04
   0.236763E-02
   0.355100E-02
   0.387040E-02
   0.179641E-02
   0.151781E-02
   0.396198E-02
   0.427415E-02
   0.316127E-02
   0.104614E-02
   0.255276E-02
   0.102362E-02
   0.230395E-02
   0.355069E-02
   0.603208E-02
   0.512566E-03
   0.551472E-02
   0.190618E-02
   0.252182E-02
   0.242423E-02
   0.409574E-02
   0.264374E-02
   0.388413E-02
   0.252974E-02
   0.821905E-02
   0.868267E-02
   0.370686E-02
   0.385884E-02
   0.396275E-02
   0.213351E-02
   0.510075E-03
   0.635965E-02
   0.841957E-02
   0.264533E-02
   0.267864E-02
   0.113370E-04
   0.375643E-02
   0.263495E-04
   0.386185E-02
   0.110747E-03
   0.611035E-02
   0.257910E-02
   0.189745E-02
   0.194002E-02
   0.248252E-02
   0.904956E-05
   0.826477E-05
   0.800020E-02
   0.252274E-02
   0.244022E-02
   0.236762E-02
   0.368000E-02
   0.841674E-02
   0.410642E-02
   0.145301E-04
   0.400536E-02
   0.386854E-02
   0.672362E-05
   0.732364E-02
   0.849234E-02
   0.655484E-02
   0.544249E-02
   0.252728E-02
   0.192029E-02
   0.304042E-05
   0.636866E-02
   0.595983E-02
   0.544947E-02
   0.243482E-02
   0.564169E-02
   0.336674E-03
   0.181853E-02
   0.664379E-05
   0.239714E-02
   0.632117E-02
   0.842653E-02
   0.541600E-02
   0.632493E-02
   0.252234E-02
   0.390170E-02
   0.252287E-02
   0.871216E-02
   0.388857E-02
   0.375327E-02
   0.805202E-05
   0.204288E-05
   0.918748E-05
   0.638611E-02
   0.248629E-05
   0.299868E-02
   0.841102E-02
   0.299251E-02
   0.648737E-02
   0.576592E-02
   0.564112E-02
   0.191240E-02
   0.253505E-02
   0.127926E-04
   0.551247E-02
   0.852259E-02
   0.592383E-02
   0.244869E-02
   0.381978E-02
   0.241998E-02
   0.255051E-02
   0.406630E-02
   0.287671E-02
   0.218195E-02
   0.323055E-02
   0.396623E-02
   0.637269E-02
   0.217541E-02
   0.519134E-03
   0.841233E-02
   0.260122E-02
   0.272157E-02
   0.214540E-02
   0.563037E-02
   0.512221E-03
   0.432158E-02
   0.451285E-02
   0.471491E-02
   0.244076E-02
   0.945606E-05
   0.305934E-04
   0.288296E-02
   0.575708E-05
   0.649561E-02
   0.370473E-02
   0.843593E-02
   0.412865E-02
   0.386622E-02
   0.400444E-02
   0.165308E-04
   0.289602E-02
   0.374031E-02
   0.236890E-02
   0.656427E-02
   0.729913E-02
   0.547063E-02
   0.377001E-02
   0.244850E-02
   0.252688E-02
   0.221771E-02
   0.406930E-02
   0.320895E-02
   0.235949E-02
   0.842342E-02
   0.366561E-02
   0.409121E-02
   0.567360E-02
   0.844135E-02
   0.578532E-02
   0.360504E-05
   0.291291E-02
   0.391187E-02
   0.385806E-02
   0.155020E-04
   0.710898E-05
   0.192230E-02
   0.183861E-02
   0.338902E-03
   0.610620E-02
   0.183239E-02
   0.110388E-02
   0.614858E-03
   0.598007E-03
   0.632534E-02
   0.240283E-02
   0.119370E-04
   0.536983E-02
   0.840818E-02
   0.634438E-02
   0.259846E-02
   0.870051E-02
   0.271259E-02
   0.171272E-02
   0.675139E-03
   0.745937E-03
   0.565369E-02
   0.214646E-02
   0.515711E-03
   0.442890E-02
   0.434292E-02
   0.473232E-02
   0.634706E-02
   0.730550E-02
   0.538353E-02
   0.262933E-07
   0.168731E-02
   0.239056E-02
   0.606647E-02
   0.333570E-03
   0.179290E-02
   0.659712E-03
   0.109914E-02
   0.624619E-03
   0.264909E-02
   0.260203E-02
   0.118884E-04
   0.364650E-05
   0.296284E-02
   0.292228E-02
   0.840163E-02
   0.298759E-02
   0.299621E-02
   0.185248E-06
   0.576678E-02
   0.648514E-02
   0.564348E-02
   0.433209E-02
   0.375276E-02
   0.385630E-02
   0.797014E-02
   0.371738E-02
   0.308641E-02
   0.133002E-02
   0.128700E-02
   0.545850E-02
   0.849933E-02
   0.654671E-02
   0.843281E-02
   0.369204E-02
   0.411267E-02
   0.527093E-05
   0.305165E-02
   0.771634E-03
   0.374243E-02
   0.290022E-02
   0.236862E-02
   0.648833E-02
   0.336967E-05
   0.241706E-02
   0.792145E-02
   0.240470E-02
   0.361315E-04
   0.124749E-04
   0.134483E-02
   0.191828E-02
   0.192376E-02
   0.868914E-02
   0.256985E-02
   0.273681E-02
   0.673256E-03
   0.171298E-02
   0.753230E-03
   0.406982E-02
   0.473375E-02
   0.447644E-02
   0.109170E-02
   0.681574E-03
   0.391143E-02
   0.376407E-02
   0.129396E-02
   0.308463E-02
   0.636443E-02
   0.591361E-02
   0.549751E-02
   0.122808E-04
   0.190978E-02
   0.131663E-02
   0.843085E-02
   0.578600E-02
   0.567161E-02
   0.291565E-02
   0.408140E-05
   0.642566E-02
   0.250969E-04
   0.137008E-04
   0.135068E-04
   0.290334E-02
   0.322585E-02
   0.224349E-02
   0.291137E-02
   0.611301E-03
   0.136724E-02
   0.727097E-02
   0.533237E-02
   0.636452E-02
   0.238047E-02
   0.169303E-02
   0.251353E-05
   0.184106E-02
   0.668529E-03
   0.558037E-02
   0.851204E-02
   0.587834E-02
   0.837547E-05
   0.138896E-02
   0.178705E-02
   0.655329E-02
   0.547864E-02
   0.780503E-03
   0.307085E-02
   0.435826E-02
   0.375449E-02
   0.216045E-04
   0.291854E-02
   0.115219E-03
   0.131708E-02
   0.976526E-04
   0.233261E-02
   0.160085E-02
   0.292768E-02
   0.930187E-03
   0.405472E-02
   0.437859E-02
   0.476020E-02
   0.114302E-02
   0.628027E-03
   0.322472E-02
   0.673555E-03
   0.326767E-02
   0.526763E-02
   0.964528E-02
   0.158059E-02
   0.914791E-02
   0.369469E-02
   0.386965E-02
   0.385147E-02
   0.590142E-02
   0.367364E-02
   0.584453E-02
   0.485905E-02
   0.139499E-01
   0.139918E-01
   0.118205E-02
   0.413028E-03
   0.591902E-02
   0.434203E-02
   0.181703E-02
   0.100804E-01
   0.133987E-01
   0.179741E-02
   0.160335E-02
   0.942928E-04
   0.557061E-02
   0.102045E-03
   0.584731E-02
   0.194053E-04
   0.953491E-02
   0.486785E-02
   0.249832E-02
   0.260674E-02
   0.382792E-02
   0.546951E-05
   0.537255E-04
   0.137476E-01
   0.362731E-03
   0.489932E-03
   0.455698E-02
   0.777238E-03
   0.143197E-01
   0.120438E-02
   0.189140E-05
   0.602785E-02
   0.579718E-02
   0.470264E-04
   0.126768E-01
   0.138692E-01
   0.179873E-02
   0.808747E-03
   0.391275E-02
   0.251076E-02
   0.126823E-04
   0.126038E-01
   0.277777E-02
   0.215094E-02
   0.343274E-02
   0.931539E-02
   0.134325E-02
   0.354149E-02
   0.103896E-04
   0.465287E-02
   0.100001E-01
   0.139062E-01
   0.105788E-02
   0.189196E-02
   0.387254E-02
   0.585956E-02
   0.351431E-02
   0.140240E-01
   0.501263E-03
   0.111854E-02
   0.327731E-04
   0.255602E-04
   0.252446E-04
   0.126323E-01
   0.315885E-04
   0.500640E-03
   0.142553E-01
   0.515996E-03
   0.128486E-01
   0.310464E-02
   0.295823E-02
   0.250303E-02
   0.391125E-02
   0.149016E-05
   0.230138E-02
   0.138937E-01
   0.270386E-02
   0.347072E-02
   0.565903E-02
   0.371929E-02
   0.353552E-02
   0.114438E-01
   0.105441E-01
   0.962672E-03
   0.189977E-02
   0.596095E-02
   0.100930E-01
   0.438798E-02
   0.179114E-02
   0.134015E-01
   0.185054E-02
   0.149310E-02
   0.434882E-02
   0.930988E-02
   0.178101E-02
   0.112689E-01
   0.162935E-02
   0.123250E-02
   0.376873E-02
   0.954658E-05
   0.516161E-04
   0.106428E-01
   0.587663E-05
   0.128743E-01
   0.770343E-03
   0.134221E-01
   0.124456E-02
   0.579864E-02
   0.602584E-02
   0.735599E-05
   0.108179E-01
   0.203819E-02
   0.676077E-03
   0.178313E-02
   0.126454E-01
   0.833420E-03
   0.557012E-02
   0.345647E-02
   0.349790E-02
   0.855199E-03
   0.114612E-01
   0.185760E-02
   0.455647E-02
   0.143295E-01
   0.791321E-03
   0.122624E-02
   0.303717E-02
   0.139184E-01
   0.310343E-02
   0.365281E-05
   0.108893E-01
   0.592349E-02
   0.585098E-02
   0.179706E-05
   0.838934E-05
   0.451845E-02
   0.467446E-02
   0.132292E-02
   0.954560E-02
   0.353309E-02
   0.522177E-02
   0.299072E-02
   0.139602E-02
   0.100085E-01
   0.465464E-02
   0.142954E-04
   0.929356E-03
   0.138879E-01
   0.190488E-02
   0.185221E-02
   0.140410E-01
   0.152639E-02
   0.501466E-02
   0.131771E-02
   0.293414E-02
   0.931791E-02
   0.435907E-02
   0.176830E-02
   0.150442E-02
   0.112937E-01
   0.126871E-02
   0.192093E-02
   0.126508E-01
   0.964971E-03
   0.116743E-04
   0.507427E-02
   0.602516E-03
   0.946063E-02
   0.130193E-02
   0.346432E-02
   0.292413E-02
   0.524862E-02
   0.139030E-02
   0.496330E-02
   0.487163E-02
   0.829763E-05
   0.413310E-06
   0.115697E-02
   0.124364E-02
   0.142527E-01
   0.497592E-03
   0.527580E-03
   0.274060E-04
   0.306836E-02
   0.128478E-01
   0.295458E-02
   0.112761E-01
   0.201472E-02
   0.441551E-03
   0.137220E-01
   0.115907E-02
   0.124558E-02
   0.133238E-02
   0.146624E-02
   0.818101E-03
   0.138721E-01
   0.176791E-02
   0.134142E-01
   0.778675E-03
   0.125846E-02
   0.804442E-05
   0.130784E-02
   0.288052E-02
   0.202196E-02
   0.108182E-01
   0.672045E-03
   0.128665E-01
   0.874637E-05
   0.567519E-03
   0.135997E-01
   0.521405E-03
   0.740732E-04
   0.372374E-04
   0.128667E-02
   0.419189E-04
   0.425103E-04
   0.140002E-01
   0.187470E-02
   0.142636E-02
   0.133794E-02
   0.501097E-02
   0.292651E-02
   0.114475E-01
   0.124781E-02
   0.154030E-02
   0.523748E-02
   0.134668E-02
   0.547401E-03
   0.107890E-02
   0.146748E-02
   0.124102E-02
   0.126013E-01
   0.270523E-02
   0.225307E-02
   0.503073E-04
   0.378657E-04
   0.140961E-02
   0.139016E-01
   0.306619E-02
   0.302599E-02
   0.108866E-01
   0.357333E-05
   0.126717E-01
   0.370151E-05
   0.171156E-04
   0.404564E-05
   0.106233E-01
   0.186532E-02
   0.873384E-03
   0.119346E-02
   0.137845E-02
   0.134946E-02
   0.126056E-01
   0.834261E-03
   0.193619E-02
   0.600412E-03
   0.506634E-02
   0.134319E-04
   0.463206E-02
   0.292095E-02
   0.244920E-02
   0.138707E-01
   0.264252E-02
   0.563689E-04
   0.134656E-02
   0.147082E-03
   0.175623E-02
   0.847275E-03
   0.283200E-02
   0.128150E-02
   0.113028E-01
   0.199871E-02
   0.460545E-04
   0.107425E-01
   0.186092E-03
   0.141011E-02
   0.123541E-03
   0.707445E-03
   0.500745E-02
   0.133575E-02
   0.238889E-02
   0.113933E-01
   0.137598E-02
   0.133352E-02
   0.513276E-02
   0.148789E-02
   0.178957E-02
   0.127648E-02
   0.114050E-01
   0.197968E-01
   0.247834E-01
   0.573167E-02
   0.276953E-01
   0.995078E-02
   0.115768E-01
   0.111508E-01
   0.143263E-01
   0.990735E-02
   0.170479E-01
   0.146327E-01
   0.447475E-01
   0.430125E-01
   0.142026E-01
   0.753936E-02
   0.161895E-01
   0.114930E-01
   0.655357E-02
   0.278851E-01
   0.420916E-01
   0.155952E-01
   0.144025E-01
   0.145413E-02
   0.165724E-01
   0.235087E-04
   0.157709E-01
   0.207325E-03
   0.272245E-01
   0.137544E-01
   0.744608E-02
   0.738069E-02
   0.110960E-01
   0.205590E-04
   0.400779E-03
   0.455276E-01
   0.793867E-02
   0.677413E-02
   0.140770E-01
   0.141125E-01
   0.451012E-01
   0.754697E-02
   0.133439E-03
   0.158591E-01
   0.171885E-01
   0.173017E-04
   0.400869E-01
   0.435546E-01
   0.131266E-01
   0.145953E-01
   0.115430E-01
   0.734707E-02
   0.682825E-04
   0.453532E-01
   0.641508E-02
   0.509049E-02
   0.981500E-02
   0.277306E-01
   0.566688E-02
   0.101973E-01
   0.311475E-03
   0.132194E-01
   0.284693E-01
   0.422332E-01
   0.140118E-01
   0.127509E-01
   0.115725E-01
   0.170053E-01
   0.100722E-01
   0.428684E-01
   0.733833E-02
   0.142027E-01
   0.569106E-04
   0.918709E-05
   0.995432E-04
   0.456544E-01
   0.230898E-03
   0.527026E-02
   0.458080E-01
   0.596965E-02
   0.463748E-01
   0.601371E-02
   0.382080E-02
   0.738326E-02
   0.115047E-01
   0.422089E-04
   0.563054E-02
   0.436055E-01
   0.636266E-02
   0.995170E-02
   0.162614E-01
   0.113807E-01
   0.100800E-01
   0.438659E-01
   0.466007E-01
   0.119803E-01
   0.427071E-02
   0.161713E-01
   0.279108E-01
   0.112635E-01
   0.651223E-02
   0.420680E-01
   0.155811E-01
   0.147563E-01
   0.111865E-01
   0.277351E-01
   0.620085E-02
   0.430916E-01
   0.834995E-02
   0.918200E-02
   0.113737E-01
   0.302489E-04
   0.470746E-04
   0.461872E-01
   0.872973E-04
   0.465184E-01
   0.139930E-01
   0.421829E-01
   0.721029E-02
   0.172244E-01
   0.158312E-01
   0.144348E-03
   0.467438E-01
   0.456015E-02
   0.113769E-01
   0.129729E-01
   0.401788E-01
   0.144212E-01
   0.161804E-01
   0.995657E-02
   0.100322E-01
   0.122488E-01
   0.438874E-01
   0.415977E-02
   0.140375E-01
   0.451142E-01
   0.141857E-01
   0.756341E-02
   0.421795E-02
   0.422855E-01
   0.619836E-02
   0.244851E-03
   0.462065E-01
   0.159790E-01
   0.160966E-01
   0.115269E-03
   0.142022E-03
   0.273449E-01
   0.269508E-01
   0.574717E-02
   0.268282E-01
   0.101817E-01
   0.285701E-01
   0.147109E-01
   0.842897E-02
   0.284585E-01
   0.132534E-01
   0.296900E-03
   0.134597E-01
   0.422529E-01
   0.125689E-01
   0.156368E-01
   0.427432E-01
   0.146076E-01
   0.287200E-01
   0.839532E-02
   0.144025E-01
   0.276082E-01
   0.113833E-01
   0.629332E-02
   0.792368E-02
   0.432958E-01
   0.893898E-02
   0.126963E-01
   0.401806E-01
   0.135866E-01
   0.141772E-03
   0.282153E-01
   0.120479E-01
   0.271959E-01
   0.591343E-02
   0.106219E-01
   0.149000E-01
   0.287359E-01
   0.841726E-02
   0.137982E-01
   0.140226E-01
   0.310722E-04
   0.260332E-04
   0.161378E-01
   0.161950E-01
   0.457843E-01
   0.529181E-02
   0.595418E-02
   0.219915E-03
   0.595342E-02
   0.463860E-01
   0.379788E-02
   0.431954E-01
   0.472367E-02
   0.756213E-02
   0.451555E-01
   0.143298E-01
   0.173679E-01
   0.105881E-01
   0.106487E-01
   0.143873E-01
   0.435751E-01
   0.129247E-01
   0.420286E-01
   0.141328E-01
   0.726056E-02
   0.362370E-04
   0.171623E-01
   0.147344E-01
   0.444111E-02
   0.467700E-01
   0.113375E-01
   0.465096E-01
   0.963272E-04
   0.649768E-02
   0.456241E-01
   0.739579E-02
   0.288127E-03
   0.103998E-04
   0.105984E-01
   0.719643E-02
   0.716173E-02
   0.427064E-01
   0.156963E-01
   0.150362E-01
   0.841670E-02
   0.287406E-01
   0.144317E-01
   0.440733E-01
   0.901135E-02
   0.784244E-02
   0.287724E-01
   0.838508E-02
   0.748673E-02
   0.144099E-01
   0.106674E-01
   0.173205E-01
   0.455011E-01
   0.624137E-02
   0.528731E-02
   0.715908E-04
   0.727251E-02
   0.107156E-01
   0.422829E-01
   0.616248E-02
   0.422166E-02
   0.462118E-01
   0.252012E-03
   0.456042E-01
   0.185066E-03
   0.710866E-04
   0.989562E-05
   0.465007E-01
   0.404660E-02
   0.120557E-01
   0.165284E-01
   0.824558E-02
   0.103155E-01
   0.402315E-01
   0.130904E-01
   0.125593E-01
   0.120557E-01
   0.282105E-01
   0.133996E-03
   0.273548E-01
   0.144426E-01