# vtk DataFile Version 2.0
This file was created by Fortran
ASCII
DATASET UNSTRUCTURED_GRID
POINTS  900  DOUBLE
  -0.446385E+00   0.232354E+00  -0.326729E+00
  -0.434834E+00   0.117040E+00  -0.396511E+00
  -0.361960E+00   0.116983E+00  -0.464004E+00
  -0.292007E+00   0.229244E+00  -0.471359E+00
  -0.383387E+00   0.325449E+00  -0.327257E+00
  -0.293643E+00   0.322163E+00  -0.412292E+00
  -0.546515E+00   0.216374E+00  -0.120432E+00
  -0.545963E+00   0.116646E+00  -0.219814E+00
  -0.500478E+00   0.117158E+00  -0.309508E+00
  -0.445474E+00   0.323683E+00  -0.238292E+00
  -0.501456E+00   0.306408E+00  -0.121063E+00
  -0.271477E+00   0.113972E+00  -0.522791E+00
  -0.181560E+00   0.113425E+00  -0.560509E+00
  -0.201682E+00   0.317214E+00  -0.467653E+00
  -0.866719E-01   0.294720E+00  -0.515391E+00
  -0.862208E-01   0.207855E+00  -0.556203E+00
  -0.433764E+00   0.397053E+00  -0.119155E+00
  -0.291855E+00   0.413135E+00  -0.322707E+00
  -0.287228E+00   0.473238E+00  -0.231400E+00
  -0.360707E+00   0.464449E+00  -0.119070E+00
  -0.198099E+00   0.469981E+00  -0.316029E+00
  -0.862270E-01   0.385170E+00  -0.451895E+00
  -0.862116E-01   0.452907E+00  -0.383983E+00
  -0.408080E+00  -0.241774E-05  -0.439853E+00
  -0.500514E+00  -0.117153E+00  -0.309453E+00
  -0.527801E+00   0.218573E-05  -0.285352E+00
  -0.434565E+00  -0.117097E+00  -0.396789E+00
  -0.247713E+00  -0.154204E-04  -0.546478E+00
  -0.361646E+00  -0.117055E+00  -0.464231E+00
  -0.271424E+00  -0.113989E+00  -0.522815E+00
  -0.583037E+00  -0.100176E+00  -0.100164E+00
  -0.583038E+00   0.100167E+00  -0.100164E+00
  -0.545987E+00  -0.116658E+00  -0.219749E+00
  -0.591803E+00  -0.552629E-05  -0.988392E-01
  -0.643675E-01  -0.616271E-05  -0.590512E+00
  -0.181501E+00  -0.113437E+00  -0.560526E+00
  -0.656875E-01   0.949455E-01  -0.588787E+00
  -0.656745E-01  -0.949552E-01  -0.588787E+00
  -0.268118E+00   0.524505E+00  -0.114048E+00
  -0.830221E-01   0.516187E+00  -0.294377E+00
  -0.177963E+00   0.561670E+00  -0.113382E+00
  -0.825867E-01   0.556855E+00  -0.207587E+00
  -0.408103E+00   0.439832E+00   0.396687E-05
  -0.433761E+00   0.397055E+00   0.119157E+00
  -0.501459E+00   0.306405E+00   0.121058E+00
  -0.527807E+00   0.285342E+00   0.434065E-05
   0.293071E-01   0.419991E+00  -0.419991E+00
   0.293256E-01   0.269589E+00  -0.529142E+00
   0.142081E+00   0.290192E+00  -0.505571E+00
   0.141511E+00   0.377692E+00  -0.444211E+00
  -0.546517E+00   0.216371E+00   0.120429E+00
  -0.583036E+00   0.100170E+00   0.100173E+00
  -0.591802E+00   0.988435E-01   0.528651E-05
   0.292040E-01   0.928362E-01  -0.586593E+00
   0.141426E+00   0.203713E+00  -0.546351E+00
   0.122385E+00   0.947199E-01  -0.579698E+00
  -0.446167E+00  -0.232449E+00  -0.326959E+00
  -0.383102E+00  -0.325520E+00  -0.327520E+00
  -0.291629E+00  -0.229281E+00  -0.471575E+00
  -0.293317E+00  -0.322192E+00  -0.412501E+00
  -0.247733E+00   0.546469E+00   0.546897E-05
  -0.268117E+00   0.524504E+00   0.114057E+00
  -0.360704E+00   0.464451E+00   0.119074E+00
   0.293221E-01   0.529079E+00  -0.269543E+00
   0.141499E+00   0.445183E+00  -0.376550E+00
   0.138668E+00   0.506623E+00  -0.290007E+00
  -0.546529E+00  -0.216378E+00  -0.120362E+00
  -0.501470E+00  -0.306413E+00  -0.120992E+00
  -0.445496E+00  -0.323698E+00  -0.238228E+00
  -0.201622E+00  -0.317223E+00  -0.467673E+00
  -0.861466E-01  -0.207851E+00  -0.556216E+00
  -0.865996E-01  -0.294723E+00  -0.515401E+00
  -0.591801E+00  -0.988483E-01   0.511230E-05
  -0.591802E+00  -0.296414E-05   0.988466E-01
   0.119808E+00   0.318706E-05  -0.583032E+00
   0.292178E-01  -0.928281E-01  -0.586583E+00
  -0.643748E-01   0.590513E+00   0.445900E-05
  -0.657050E-01   0.588784E+00   0.949510E-01
  -0.177962E+00   0.561669E+00   0.113391E+00
  -0.657056E-01   0.588786E+00  -0.949441E-01
   0.291947E-01   0.586569E+00  -0.928238E-01
   0.137992E+00   0.547276E+00  -0.203586E+00
   0.122384E+00   0.579700E+00  -0.947124E-01
  -0.583036E+00  -0.100173E+00   0.100172E+00
  -0.546527E+00  -0.216378E+00   0.120368E+00
  -0.527806E+00  -0.285343E+00   0.470258E-05
   0.122401E+00  -0.947103E-01  -0.579697E+00
   0.293494E-01  -0.269586E+00  -0.529130E+00
   0.141393E+00  -0.203710E+00  -0.546361E+00
  -0.445945E+00   0.232400E+00   0.327297E+00
  -0.500485E+00   0.117149E+00   0.309501E+00
  -0.545965E+00   0.116646E+00   0.219809E+00
  -0.445477E+00   0.323683E+00   0.238284E+00
   0.249437E+00   0.303075E+00  -0.446901E+00
   0.232975E+00   0.109427E+00  -0.541986E+00
   0.315061E+00   0.109769E+00  -0.498686E+00
   0.330129E+00   0.216502E+00  -0.445889E+00
  -0.433761E+00  -0.397057E+00  -0.119153E+00
  -0.360704E+00  -0.464452E+00  -0.119069E+00
  -0.291849E+00  -0.413141E+00  -0.322705E+00
  -0.287226E+00  -0.473239E+00  -0.231400E+00
  -0.198097E+00  -0.469982E+00  -0.316029E+00
  -0.862131E-01  -0.385177E+00  -0.451892E+00
  -0.862084E-01  -0.452911E+00  -0.383978E+00
  -0.291849E+00   0.413140E+00   0.322707E+00
  -0.382887E+00   0.325488E+00   0.327804E+00
  -0.287224E+00   0.473239E+00   0.231403E+00
   0.246191E+00   0.449406E+00  -0.302110E+00
   0.334330E+00   0.307460E+00  -0.392035E+00
   0.332757E+00   0.392924E+00  -0.308031E+00
  -0.545986E+00  -0.116655E+00   0.219753E+00
  -0.527800E+00  -0.246947E-05   0.285354E+00
   0.290663E+00   0.834512E-05  -0.520338E+00
   0.232933E+00  -0.109421E+00  -0.542005E+00
   0.119808E+00   0.583035E+00   0.142282E-05
   0.291961E-01   0.586561E+00   0.928265E-01
  -0.830193E-01   0.516186E+00   0.294380E+00
  -0.198093E+00   0.469981E+00   0.316033E+00
  -0.825852E-01   0.556853E+00   0.207592E+00
  -0.501469E+00  -0.306413E+00   0.120997E+00
  -0.433759E+00  -0.397057E+00   0.119160E+00
  -0.408102E+00  -0.439832E+00   0.438597E-05
   0.229656E+00   0.543388E+00  -0.109489E+00
   0.325646E+00   0.447558E+00  -0.218482E+00
   0.312026E+00   0.500555E+00  -0.109930E+00
   0.142041E+00  -0.290199E+00  -0.505578E+00
   0.293155E-01  -0.420002E+00  -0.419990E+00
   0.141528E+00  -0.377698E+00  -0.444201E+00
  -0.500512E+00  -0.117160E+00   0.309452E+00
  -0.446164E+00  -0.232451E+00   0.326962E+00
  -0.445494E+00  -0.323699E+00   0.238231E+00
   0.315028E+00  -0.109757E+00  -0.498709E+00
   0.249390E+00  -0.303068E+00  -0.446881E+00
   0.329855E+00  -0.216549E+00  -0.446102E+00
  -0.268120E+00  -0.524504E+00  -0.114050E+00
  -0.177966E+00  -0.561669E+00  -0.113384E+00
  -0.830244E-01  -0.516187E+00  -0.294377E+00
  -0.825922E-01  -0.556853E+00  -0.207589E+00
   0.122387E+00   0.579699E+00   0.947132E-01
   0.293242E-01   0.529077E+00   0.269545E+00
   0.137996E+00   0.547273E+00   0.203590E+00
   0.290680E+00   0.520327E+00  -0.242194E-06
   0.229657E+00   0.543387E+00   0.109490E+00
  -0.434562E+00  -0.117107E+00   0.396789E+00
  -0.434334E+00   0.117042E+00   0.397059E+00
  -0.408077E+00  -0.515527E-05   0.439856E+00
   0.433484E+00   0.889381E-05  -0.410068E+00
   0.396163E+00   0.109957E+00  -0.436994E+00
   0.395924E+00  -0.109995E+00  -0.437202E+00
  -0.291399E+00   0.229182E+00   0.471765E+00
  -0.361372E+00   0.116972E+00   0.464465E+00
  -0.293055E+00   0.322119E+00   0.412744E+00
   0.414889E+00   0.305626E+00  -0.307343E+00
   0.459482E+00   0.109889E+00  -0.369866E+00
   0.465510E+00   0.214999E+00  -0.302852E+00
  -0.360701E+00  -0.464452E+00   0.119075E+00
  -0.268117E+00  -0.524504E+00   0.114058E+00
  -0.247734E+00  -0.546469E+00   0.497254E-05
   0.141503E+00  -0.445190E+00  -0.376540E+00
   0.293165E-01  -0.529087E+00  -0.269546E+00
   0.138664E+00  -0.506627E+00  -0.290003E+00
  -0.862149E-01   0.385173E+00   0.451894E+00
  -0.201676E+00   0.317207E+00   0.467661E+00
  -0.862056E-01   0.452909E+00   0.383982E+00
   0.395133E+00   0.437424E+00  -0.111937E+00
   0.464274E+00   0.299723E+00  -0.220236E+00
   0.458601E+00   0.370355E+00  -0.111901E+00
  -0.383097E+00  -0.325522E+00   0.327524E+00
  -0.291845E+00  -0.413141E+00   0.322709E+00
  -0.287222E+00  -0.473239E+00   0.231406E+00
   0.334087E+00  -0.307490E+00  -0.392219E+00
   0.246196E+00  -0.449411E+00  -0.302100E+00
   0.332764E+00  -0.392929E+00  -0.308018E+00
   0.138668E+00   0.506622E+00   0.290008E+00
   0.293154E-01   0.419999E+00   0.419994E+00
   0.141505E+00   0.445185E+00   0.376546E+00
   0.433511E+00   0.410047E+00  -0.870046E-06
   0.395136E+00   0.437422E+00   0.111936E+00
   0.312027E+00   0.500554E+00   0.109931E+00
  -0.361639E+00  -0.117053E+00   0.464237E+00
  -0.291623E+00  -0.229281E+00   0.471579E+00
  -0.293311E+00  -0.322193E+00   0.412505E+00
   0.459276E+00  -0.109942E+00  -0.370105E+00
   0.414674E+00  -0.305690E+00  -0.307570E+00
   0.465292E+00  -0.215055E+00  -0.303015E+00
  -0.271416E+00  -0.113982E+00   0.522821E+00
  -0.271469E+00   0.113967E+00   0.522796E+00
  -0.247719E+00  -0.665004E-05   0.546475E+00
   0.535875E+00   0.460165E-05  -0.262242E+00
   0.516086E+00   0.108200E+00  -0.286266E+00
   0.516112E+00  -0.108201E+00  -0.286218E+00
  -0.177963E+00  -0.561668E+00   0.113392E+00
  -0.657087E-01  -0.588784E+00   0.949521E-01
  -0.657110E-01  -0.588785E+00  -0.949458E-01
  -0.643788E-01  -0.590512E+00   0.395035E-05
   0.137987E+00  -0.547277E+00  -0.203587E+00
   0.291882E-01  -0.586569E+00  -0.928253E-01
   0.122378E+00  -0.579701E+00  -0.947134E-01
   0.246196E+00   0.449402E+00   0.302105E+00
   0.325648E+00   0.447552E+00   0.218481E+00
  -0.862126E-01   0.207841E+00   0.556210E+00
  -0.181569E+00   0.113419E+00   0.560507E+00
  -0.866621E-01   0.294713E+00   0.515397E+00
   0.516944E+00   0.283331E+00  -0.111768E+00
   0.554422E+00   0.107820E+00  -0.202462E+00
   0.554903E+00   0.199243E+00  -0.111288E+00
   0.141524E+00   0.377693E+00   0.444206E+00
   0.293404E-01   0.269584E+00   0.529136E+00
   0.142093E+00   0.290189E+00   0.505569E+00
  -0.198091E+00  -0.469981E+00   0.316034E+00
[...]
POINT_DATA  900
SCALARS  vx_strength  double
LOOKUP_TABLE default
   0.230395E-02
   0.355069E-02
   0.603208E-02
   0.512566E-03
   0.551472E-02
   0.190618E-02
   0.252182E-02
   0.242423E-02
   0.409574E-02
   0.264374E-02
   0.388413E-02
   0.252974E-02
   0.821905E-02
   0.868267E-02
   0.370686E-02
   0.385884E-02
   0.396275E-02
   0.213351E-02
   0.510075E-03
   0.635965E-02
   0.841957E-02
   0.264533E-02
   0.267864E-02
   0.113370E-04
   0.375643E-02
   0.263495E-04
   0.386185E-02
   0.110747E-03
   0.611035E-02
   0.257910E-02
   0.189745E-02
   0.194002E-02
   0.248252E-02
   0.904956E-05
   0.826477E-05
   0.800020E-02
   0.252274E-02
   0.244022E-02
   0.236762E-02
   0.368000E-02
   0.841674E-02
   0.410642E-02
   0.145301E-04
   0.400536E-02
   0.386854E-02
   0.672362E-05
   0.732364E-02
   0.849234E-02
   0.655484E-02
   0.544249E-02
   0.252728E-02
   0.192029E-02
   0.304042E-05
   0.636866E-02
   0.595983E-02
   0.544947E-02
   0.243482E-02
   0.564169E-02
   0.336674E-03
   0.181853E-02
   0.664379E-05
   0.239714E-02
   0.632117E-02
   0.842653E-02
   0.541600E-02
   0.632493E-02
   0.252234E-02
   0.390170E-02
   0.252287E-02
   0.871216E-02
   0.388857E-02
   0.375327E-02
   0.805202E-05
   0.204288E-05
   0.918748E-05
   0.638611E-02
   0.248629E-05
   0.299868E-02
   0.841102E-02
   0.299251E-02
   0.648737E-02
   0.576592E-02
   0.564112E-02
   0.191240E-02
   0.253505E-02
   0.127926E-04
   0.551247E-02
   0.852259E-02
   0.592383E-02
   0.244869E-02
   0.381978E-02
   0.241998E-02
   0.255051E-02
   0.406630E-02
   0.287671E-02
   0.218195E-02
   0.323055E-02
   0.396623E-02
   0.637269E-02
   0.217541E-02
   0.519134E-03
   0.841233E-02
   0.260122E-02
   0.272157E-02
   0.214540E-02
   0.563037E-02
   0.512221E-03
   0.432158E-02
   0.451285E-02
   0.471491E-02
   0.244076E-02
   0.945606E-05
   0.305934E-04
   0.288296E-02
   0.575708E-05
   0.649561E-02
   0.370473E-02
   0.843593E-02
   0.412865E-02
   0.386622E-02
   0.400444E-02
   0.165308E-04
   0.289602E-02
   0.374031E-02
   0.236890E-02
   0.656427E-02
   0.729913E-02
   0.547063E-02
   0.377001E-02
   0.244850E-02
   0.252688E-02
   0.221771E-02
   0.406930E-02
   0.320895E-02
   0.235949E-02
   0.842342E-02
   0.366561E-02
   0.409121E-02
   0.567360E-02
   0.844135E-02
   0.578532E-02
   0.360504E-05
   0.291291E-02
   0.391187E-02
   0.385806E-02
   0.155020E-04
   0.710898E-05
   0.192230E-02
   0.183861E-02
   0.338902E-03
   0.610620E-02
   0.183239E-02
   0.110388E-02
   0.614858E-03
   0.598007E-03
   0.632534E-02
   0.240283E-02
   0.119370E-04
   0.536983E-02
   0.840818E-02
   0.634438E-02
   0.259846E-02
   0.870051E-02
   0.271259E-02
   0.171272E-02
   0.675139E-03
   0.745937E-03
   0.565369E-02
   0.214646E-02
   0.515711E-03
   0.442890E-02
   0.434292E-02
   0.473232E-02
   0.634706E-02
   0.730550E-02
   0.538353E-02
   0.262933E-07
   0.168731E-02
   0.239056E-02
   0.606647E-02
   0.333570E-03
   0.179290E-02
   0.659712E-03
   0.109914E-02
   0.624619E-03
   0.264909E-02
   0.260203E-02
   0.118884E-04
   0.364650E-05
   0.296284E-02
   0.292228E-02
   0.840163E-02
   0.298759E-02
   0.299621E-02
   0.185248E-06
   0.576678E-02
   0.648514E-02
   0.564348E-02
   0.433209E-02
   0.375276E-02
   0.385630E-02
   0.797014E-02
   0.371738E-02
   0.308641E-02
   0.133002E-02
   0.128700E-02
   0.545850E-02
   0.849933E-02
   0.654671E-02
   0.843281E-02
   0.369204E-02
   0.411267E-02
   0.527093E-05
   0.305165E-02
   0.771634E-03
   0.374243E-02
   0.290022E-02
   0.236862E-02
   0.648833E-02
   0.336967E-05
   0.241706E-02
   0.792145E-02
   0.240470E-02
   0.361315E-04
   0.124749E-04
   0.134483E-02
   0.191828E-02
   0.192376E-02
   0.868914E-02
   0.256985E-02
   0.273681E-02
   0.673256E-03
   0.171298E-02
   0.753230E-03
   0.406982E-02
   0.473375E-02
   0.447644E-02
   0.109170E-02
   0.681574E-03
   0.391143E-02
   0.376407E-02
   0.129396E-02
   0.308463E-02
   0.636443E-02
   0.591361E-02
   0.549751E-02
   0.122808E-04
   0.190978E-02
   0.131663E-02
   0.843085E-02
   0.578600E-02
   0.567161E-02
   0.291565E-02
   0.408140E-05
   0.642566E-02
   0.250969E-04
   0.137008E-04
   0.135068E-04
   0.290334E-02
   0.322585E-02
   0.224349E-02
   0.291137E-02
   0.611301E-03
   0.136724E-02
   0.727097E-02
   0.533237E-02
   0.636452E-02
   0.238047E-02
   0.169303E-02
   0.251353E-05
   0.184106E-02
   0.668529E-03
   0.558037E-02
   0.851204E-02
   0.587834E-02
   0.837547E-05
   0.138896E-02
   0.178705E-02
   0.655329E-02
   0.547864E-02
   0.780503E-03
   0.307085E-02
   0.435826E-02
   0.375449E-02
   0.216045E-04
   0.291854E-02
   0.115219E-03
   0.131708E-02
   0.976526E-04
   0.233261E-02
   0.160085E-02
   0.292768E-02
   0.930187E-03
   0.405472E-02
   0.437859E-02
   0.476020E-02
   0.114302E-02
   0.628027E-03
   0.322472E-02
   0.673555E-03
   0.326767E-02
   0.526763E-02
   0.964528E-02
   0.158059E-02
   0.914791E-02
   0.369469E-02
   0.386965E-02
   0.385147E-02
   0.590142E-02
   0.367364E-02
   0.584453E-02
   0.485905E-02
   0.139499E-01
   0.139918E-01
   0.118205E-02
   0.413028E-03
   0.591902E-02
   0.434203E-02
   0.181703E-02
   0.100804E-01
   0.133987E-01
   0.179741E-02
   0.160335E-02
   0.942928E-04
   0.557061E-02
   0.102045E-03
   0.584731E-02
   0.194053E-04
   0.953491E-02
   0.486785E-02
   0.249832E-02
   0.260674E-02
   0.382792E-02
   0.546951E-05
   0.537255E-04
   0.137476E-01
   0.362731E-03
   0.489932E-03
   0.455698E-02
   0.777238E-03
   0.143197E-01
   0.120438E-02
   0.189140E-05
   0.602785E-02
   0.579718E-02
   0.470264E-04
   0.126768E-01
   0.138692E-01
   0.179873E-02
   0.808747E-03
   0.391275E-02
   0.251076E-02
   0.126823E-04
   0.126038E-01
   0.277777E-02
   0.215094E-02
   0.343274E-02
   0.931539E-02
   0.134325E-02
   0.354149E-02
   0.103896E-04
   0.465287E-02
   0.100001E-01
   0.139062E-01
   0.105788E-02
   0.189196E-02
   0.387254E-02
   0.585956E-02
   0.351431E-02
   0.140240E-01
   0.501263E-03
   0.111854E-02
   0.327731E-04
   0.255602E-04
   0.252446E-04
   0.126323E-01
   0.315885E-04
   0.500640E-03
   0.142553E-01
   0.515996E-03
   0.128486E-01
   0.310464E-02
   0.295823E-02
   0.250303E-02
   0.391125E-02
   0.149016E-05
   0.230138E-02
   0.138937E-01
   0.270386E-02
   0.347072E-02
   0.565903E-02
   0.371929E-02
   0.353552E-02
   0.114438E-01
   0.105441E-01
   0.962672E-03
   0.189977E-02
   0.596095E-02
   0.100930E-01
   0.438798E-02
   0.179114E-02
   0.134015E-01
   0.185054E-02
   0.149310E-02
   0.434882E-02
   0.930988E-02
   0.178101E-02
   0.112689E-01
   0.162935E-02
   0.123250E-02
   0.376873E-02
   0.954658E-05
   0.516161E-04
   0.106428E-01
   0.587663E-05
   0.128743E-01
   0.770343E-03
   0.134221E-01
   0.124456E-02
   0.579864E-02
   0.602584E-02
   0.735599E-05
   0.108179E-01
   0.203819E-02
   0.676077E-03
   0.178313E-02
   0.126454E-01
   0.833420E-03
   0.557012E-02
   0.345647E-02
   0.349790E-02
   0.855199E-03
   0.114612E-01
   0.185760E-02
   0.455647E-02
   0.143295E-01
   0.791321E-03
   0.122624E-02
   0.303717E-02
   0.139184E-01
   0.310343E-02
   0.365281E-05
   0.108893E-01
   0.592349E-02
   0.585098E-02
   0.179706E-05
   0.838934E-05
   0.451845E-02
   0.467446E-02
   0.132292E-02
   0.954560E-02
   0.353309E-02
   0.522177E-02
   0.299072E-02
   0.139602E-02
   0.100085E-01
   0.465464E-02
   0.142954E-04
   0.929356E-03
   0.138879E-01
   0.190488E-02
   0.185221E-02
   0.140410E-01
   0.152639E-02
   0.501466E-02
   0.131771E-02
   0.293414E-02
   0.931791E-02
   0.435907E-02
   0.176830E-02
   0.150442E-02
   0.112937E-01
   0.126871E-02
   0.192093E-02
   0.126508E-01
   0.964971E-03
   0.116743E-04
   0.507427E-02
   0.602516E-03
   0.946063E-02
   0.130193E-02
   0.346432E-02
   0.292413E-02
   0.524862E-02
   0.139030E-02
   0.496330E-02
   0.487163E-02
   0.829763E-05
   0.413310E-06
   0.115697E-02
   0.124364E-02
   0.142527E-01
   0.497592E-03
   0.527580E-03
   0.274060E-04
   0.306836E-02
   0.128478E-01
   0.295458E-02
   0.112761E-01
   0.201472E-02
   0.441551E-03
   0.137220E-01
   0.115907E-02
   0.124558E-02
   0.133238E-02
   0.146624E-02
   0.818101E-03
   0.138721E-01
   0.176791E-02
   0.134142E-01
   0.778675E-03
   0.125846E-02
   0.804442E-05
   0.130784E-02
   0.288052E-02
   0.202196E-02
   0.108182E-01
   0.672045E-03
   0.128665E-01
   0.874637E-05
   0.567519E-03
   0.135997E-01
   0.521405E-03
   0.740732E-04
   0.372374E-04
   0.128667E-02
   0.419189E-04
   0.425103E-04
   0.140002E-01
   0.187470E-02
   0.142636E-02
   0.133794E-02
   0.501097E-02
   0.292651E-02
   0.114475E-01
   0.124781E-02
   0.154030E-02
   0.523748E-02
   0.134668E-02
   0.547401E-03
   0.107890E-02
   0.146748E-02
   0.124102E-02
   0.126013E-01
   0.270523E-02
   0.225307E-02
   0.503073E-04
   0.378657E-04
   0.140961E-02
   0.139016E-01
   0.306619E-02
   0.302599E-02
   0.108866E-01
   0.357333E-05
   0.126717E-01
   0.370151E-05
   0.171156E-04
   0.404564E-05
   0.106233E-01
   0.186532E-02
   0.873384E-03
   0.119346E-02
   0.137845E-02
   0.134946E-02
   0.126056E-01
   0.834261E-03
   0.193619E-02
   0.600412E-03
   0.506634E-02
   0.134319E-04
   0.463206E-02
   0.292095E-02
   0.244920E-02
   0.138707E-01
   0.264252E-02
   0.563689E-04
   0.134656E-02
   0.147082E-03
   0.175623E-02
   0.847275E-03
   0.283200E-02
   0.128150E-02
   0.113028E-01
   0.199871E-02
   0.460545E-04
   0.107425E-01
   0.186092E-03
   0.141011E-02
   0.123541E-03
   0.707445E-03
   0.500745E-02
   0.133575E-02
   0.238889E-02
   0.113933E-01
   0.137598E-02
   0.133352E-02
   0.513276E-02
   0.148789E-02
   0.178957E-02
   0.127648E-02
   0.114050E-01
   0.197968E-01
   0.247834E-01
   0.573167E-02
   0.276953E-01
   0.995078E-02
   0.115768E-01
   0.111508E-01
   0.143263E-01
   0.990735E-02
   0.170479E-01
   0.146327E-01
   0.447475E-01
   0.430125E-01
   0.142026E-01
   0.753936E-02
   0.161895E-01
   0.114930E-01
   0.655357E-02
   0.278851E-01
   0.420916E-01
   0.155952E-01
   0.144025E-01
   0.145413E-02
   0.165724E-01
   0.235087E-04
   0.157709E-01
   0.207325E-03
   0.272245E-01
   0.137544E-01
   0.744608E-02
   0.738069E-02
   0.110960E-01
   0.205590E-04
   0.400779E-03
   0.455276E-01
   0.793867E-02
   0.677413E-02
   0.140770E-01
   0.141125E-01
   0.451012E-01
   0.754697E-02
   0.133439E-03
   0.158591E-01
   0.171885E-01
   0.173017E-04
   0.400869E-01
   0.435546E-01
   0.131266E-01
   0.145953E-01
   0.115430E-01
   0.734707E-02
   0.682825E-04
   0.453532E-01
   0.641508E-02
   0.509049E-02
   0.981500E-02
   0.277306E-01
   0.566688E-02
   0.101973E-01
   0.311475E-03
   0.132194E-01
   0.284693E-01
   0.422332E-01
   0.140118E-01
   0.127509E-01
   0.115725E-01
   0.170053E-01
   0.100722E-01
   0.428684E-01
   0.733833E-02
   0.142027E-01
   0.569106E-04
   0.918709E-05
   0.995432E-04
   0.456544E-01
   0.230898E-03
   0.527026E-02
   0.458080E-01
   0.596965E-02
   0.463748E-01
   0.601371E-02
   0.382080E-02
   0.738326E-02
   0.115047E-01
   0.422089E-04
   0.563054E-02
   0.436055E-01
   0.636266E-02
   0.995170E-02
   0.162614E-01
   0.113807E-01
   0.100800E-01
   0.438659E-01
   0.466007E-01
   0.119803E-01
   0.427071E-02
   0.161713E-01
   0.279108E-01
   0.112635E-01
   0.651223E-02
   0.420680E-01
   0.155811E-01
   0.147563E-01
   0.111865E-01
   0.277351E-01
   0.620085E-02
   0.430916E-01
   0.834995E-02
   0.918200E-02
   0.113737E-01
   0.302489E-04
   0.470746E-04
   0.461872E-01
   0.872973E-04
   0.465184E-01
   0.139930E-01
   0.421829E-01
   0.721029E-02
   0.172244E-01
   0.158312E-01
   0.144348E-03
   0.467438E-01
   0.456015E-02
   0.113769E-01
   0.129729E-01
   0.401788E-01
   0.144212E-01
   0.161804E-01
   0.995657E-02
   0.100322E-01
   0.122488E-01
   0.438874E-01
   0.415977E-02
   0.140375E-01
   0.451142E-01
   0.141857E-01
   0.756341E-02
   0.421795E-02
   0.422855E-01
   0.619836E-02
   0.244851E-03
   0.462065E-01
   0.159790E-01
   0.160966E-01
   0.115269E-03
   0.142022E-03
   0.273449E-01
   0.269508E-01
   0.574717E-02
   0.268282E-01
   0.101817E-01
   0.285701E-01
   0.147109E-01
   0.842897E-02
   0.284585E-01
   0.132534E-01
   0.296900E-03
   0.134597E-01
   0.422529E-01
   0.125689E-01
   0.156368E-01
   0.427432E-01
   0.146076E-01
   0.287200E-01
   0.839532E-02
   0.144025E-01
   0.276082E-01
   0.113833E-01
   0.629332E-02
   0.792368E-02
   0.432958E-01
   0.893898E-02
   0.126963E-01
   0.401806E-01
   0.135866E-01
   0.141772E-03
   0.282153E-01
   0.120479E-01
   0.271959E-01
   0.591343E-02
   0.106219E-01
   0.149000E-01
   0.287359E-01
   0.841726E-02
   0.137982E-01
   0.140226E-01
   0.310722E-04
   0.260332E-04
   0.161378E-01
   0.161950E-01
   0.457843E-01
   0.529181E-02
   0.595418E-02
   0.219915E-03
   0.595342E-02
   0.463860E-01
   0.379788E-02
   0.431954E-01
   0.472367E-02
   0.756213E-02
   0.451555E-01
   0.143298E-01
   0.173679E-01
   0.105881E-01
   0.106487E-01
   0.143873E-01
   0.435751E-01
   0.129247E-01
   0.420286E-01
   0.141328E-01
   0.726056E-02
   0.362370E-04
   0.171623E-01
   0.147344E-01
   0.444111E-02
   0.467700E-01
   0.113375E-01
   0.465096E-01
   0.963272E-04
   0.649768E-02
   0.456241E-01
   0.739579E-02
   0.288127E-03
   0.103998E-04
   0.105984E-01
   0.719643E-02
   0.716173E-02
   0.427064E-01
   0.156963E-01
   0.150362E-01
   0.841670E-02
   0.287406E-01
   0.144317E-01
   0.440733E-01
   0.901135E-02
   0.784244E-02
   0.287724E-01
   0.838508E-02
   0.748673E-02
   0.144099E-01
   0.106674E-01
   0.173205E-01
   0.455011E-01
   0.624137E-02
   0.528731E-02
   0.715908E-04
   0.727251E-02
   0.107156E-01
   0.422829E-01
   0.616248E-02
   0.422166E-02
   0.462118E-01
   0.252012E-03
   0.456042E-01
   0.185066E-03
   0.710866E-04
   0.989562E-05
   0.465007E-01
   0.404660E-02
   0.120557E-01
   0.165284E-01
   0.824558E-02
   0.103155E-01
   0.402315E-01
   0.130904E-01
   0.125593E-01
   0.120557E-01
   0.282105E-01
   0.133996E-03
   0.273548E-01
   0.144426E-01
   0.598888E-02
   0.435867E-01
   0.624828E-02
   0.191691E-04
   0.107170E-01
   0.717903E-02
   0.128462E-01
   0.142875E-01
   0.147756E-01
   0.171690E-01
   0.433350E-01
   0.467414E-02
   0.949240E-04
   0.459917E-01
   0.387756E-04
   0.103612E-01
   0.145240E-02
   0.125820E-01
   0.250798E-01
   0.145199E-01
   0.183182E-01
   0.441590E-01
   0.749472E-02
   0.900513E-02
   0.289067E-01
   0.827967E-02
   0.399024E-02
   0.977640E-02

SCALARS  vx_core_radius  double
LOOKUP_TABLE default
   0.100080E+00
   0.100086E+00
   0.100096E+00
   0.100039E+00
   0.100087E+00
   0.100067E+00
   0.100114E+00
   0.100112E+00
   0.100143E+00
   0.100101E+00
   0.100125E+00
   0.100066E+00
   0.100003E+00
   0.100054E+00
   0.100043E+00
   0.100042E+00
   0.100109E+00
   0.100064E+00
   0.100038E+00
   0.100093E+00
   0.100053E+00
   0.100035E+00
   0.100035E+00
   0.100021E+00
   0.100120E+00
   0.100354E+00
   0.100108E+00
   0.999671E-01
   0.100090E+00
   0.100068E+00
   0.100151E+00
   0.100155E+00
   0.100114E+00
   0.100172E+00
   0.100023E+00
   0.100005E+00
   0.100046E+00
   0.100047E+00
   0.100065E+00
   0.100041E+00
   0.100003E+00
   0.100039E+00
   0.999992E-01
   0.100112E+00
   0.100124E+00
   0.999086E-01
   0.100020E+00
   0.100019E+00
   0.999771E-01
   0.999868E-01
   0.100115E+00
   0.100154E+00
   0.100038E+00
   0.100021E+00
   0.999176E-01
   0.999331E-01
   0.100093E+00
   0.100089E+00
   0.100034E+00
   0.100064E+00
   0.100021E+00
   0.100068E+00
   0.100091E+00
   0.100020E+00
   0.999850E-01
   0.999788E-01
   0.100114E+00
   0.100126E+00
   0.100097E+00
   0.100054E+00
   0.100043E+00
   0.100043E+00
   0.999757E-01
   0.999501E-01
   0.100014E+00
   0.100021E+00
   0.100023E+00
   0.100056E+00
   0.100004E+00
   0.100053E+00
   0.100021E+00
   0.999185E-01
   0.998946E-01
   0.100153E+00
   0.100115E+00
   0.999323E-01
   0.999409E-01
   0.100019E+00
   0.999169E-01
   0.100093E+00
   0.100123E+00
   0.100110E+00
   0.100097E+00
   0.100033E+00
   0.100033E+00
   0.100002E+00
   0.998862E-01
   0.100110E+00
   0.100093E+00
   0.100066E+00
   0.100038E+00
   0.100053E+00
   0.100035E+00
   0.100035E+00
   0.100065E+00
   0.100089E+00
   0.100039E+00
   0.100033E+00
   0.999253E-01
   0.999325E-01
   0.100110E+00
   0.100118E+00
   0.100124E+00
   0.100033E+00
   0.100017E+00
   0.100021E+00
   0.100041E+00
   0.100053E+00
   0.100040E+00
   0.100123E+00
   0.100112E+00
   0.999980E-01
   0.100033E+00
   0.998742E-01
   0.999972E-01
   0.999764E-01
   0.100020E+00
   0.999860E-01
   0.100122E+00
   0.100093E+00
   0.100097E+00
   0.100002E+00
   0.100032E+00
   0.998840E-01
   0.100065E+00
   0.100003E+00
   0.100041E+00
   0.100039E+00
   0.999069E-01
   0.100020E+00
   0.999213E-01
   0.100025E+00
   0.100033E+00
   0.100108E+00
   0.100106E+00
   0.999935E-01
   0.100013E+00
   0.100017E+00
   0.100018E+00
   0.100034E+00
   0.100091E+00
   0.100065E+00
   0.100022E+00
   0.100021E+00
   0.100011E+00
   0.100091E+00
   0.100068E+00
   0.100019E+00
   0.999838E-01
   0.100020E+00
   0.999779E-01
   0.100035E+00
   0.100054E+00
   0.100035E+00
   0.100019E+00
   0.100009E+00
   0.100019E+00
   0.100089E+00
   0.100065E+00
   0.100038E+00
   0.999222E-01
   0.100033E+00
   0.999293E-01
   0.999784E-01
   0.100020E+00
   0.999840E-01
   0.100022E+00
   0.100019E+00
   0.999988E-01
   0.100090E+00
   0.100034E+00
   0.100063E+00
   0.100020E+00
   0.100022E+00
   0.100010E+00
   0.100069E+00
   0.100068E+00
   0.999837E-01
   0.100050E+00
   0.999909E-01
   0.999916E-01
   0.100004E+00
   0.100056E+00
   0.100053E+00
   0.100023E+00
   0.999175E-01
   0.100021E+00
   0.998940E-01
   0.100033E+00
   0.998790E-01
   0.100042E+00
   0.100005E+00
   0.100043E+00
   0.999918E-01
   0.100001E+00
   0.100002E+00
   0.999860E-01
   0.100019E+00
   0.999763E-01
   0.100053E+00
   0.100041E+00
   0.100040E+00
   0.999936E-01
   0.999918E-01
   0.100019E+00
   0.998701E-01
   0.100033E+00
   0.999971E-01
   0.100021E+00
   0.100019E+00
   0.100048E+00
   0.100005E+00
   0.100046E+00
   0.100022E+00
   0.100233E+00
   0.100000E+00
   0.100095E+00
   0.100096E+00
   0.100054E+00
   0.100035E+00
   0.100035E+00
   0.100009E+00
   0.100019E+00
   0.100019E+00
   0.100032E+00
   0.999301E-01
   0.999195E-01
   0.100022E+00
   0.100009E+00
   0.100043E+00
   0.100043E+00
   0.100002E+00
   0.999917E-01
   0.100021E+00
   0.999152E-01
   0.999352E-01
   0.100053E+00
   0.100094E+00
   0.100001E+00
   0.100020E+00
   0.999208E-01
   0.999072E-01
   0.100033E+00
   0.100025E+00
   0.100021E+00
   0.100011E+00
   0.999879E-01
   0.997807E-01
   0.100033E+00
   0.998787E-01
   0.100001E+00
   0.999927E-01
   0.100010E+00
   0.999991E-01
   0.100020E+00
   0.999829E-01
   0.999777E-01
   0.999989E-01
   0.100019E+00