# vtk DataFile Version 2.0
This file was created by Fortran
ASCII
DATASET UNSTRUCTURED_GRID
POINTS  300  DOUBLE
  -0.438657E+00   0.237362E+00  -0.333526E+00
  -0.426449E+00   0.119251E+00  -0.404871E+00
  -0.350472E+00   0.119169E+00  -0.472195E+00
  -0.278262E+00   0.232536E+00  -0.478014E+00
  -0.372706E+00   0.331513E+00  -0.333451E+00
  -0.279908E+00   0.326526E+00  -0.418369E+00
  -0.543594E+00   0.222005E+00  -0.123367E+00
  -0.543035E+00   0.119534E+00  -0.225443E+00
  -0.495157E+00   0.120018E+00  -0.316883E+00
  -0.437733E+00   0.330381E+00  -0.243389E+00
  -0.496168E+00   0.313754E+00  -0.124002E+00
  -0.256872E+00   0.115160E+00  -0.529863E+00
  -0.164196E+00   0.114523E+00  -0.565618E+00
  -0.184929E+00   0.320364E+00  -0.472407E+00
  -0.677833E-01   0.295499E+00  -0.517770E+00
  -0.674548E-01   0.208844E+00  -0.558421E+00
  -0.425394E+00   0.405326E+00  -0.121454E+00
  -0.278119E+00   0.419106E+00  -0.327109E+00
  -0.273389E+00   0.479740E+00  -0.234751E+00
  -0.349204E+00   0.472591E+00  -0.121305E+00
  -0.181264E+00   0.474623E+00  -0.319182E+00
  -0.674434E-01   0.386990E+00  -0.453531E+00
  -0.674453E-01   0.454551E+00  -0.385790E+00
  -0.398798E+00  -0.409158E-04  -0.448285E+00
  -0.495158E+00  -0.120087E+00  -0.316856E+00
  -0.523980E+00  -0.488300E-04  -0.292310E+00
  -0.426192E+00  -0.119397E+00  -0.405098E+00
  -0.232683E+00  -0.218098E-04  -0.553045E+00
  -0.350185E+00  -0.119256E+00  -0.472386E+00
  -0.256817E+00  -0.115199E+00  -0.529882E+00
  -0.582064E+00  -0.102985E+00  -0.102936E+00
  -0.582071E+00   0.102951E+00  -0.102932E+00
  -0.543039E+00  -0.119569E+00  -0.225416E+00
  -0.591351E+00  -0.196874E-04  -0.101507E+00
  -0.452597E-01  -0.232691E-04  -0.592604E+00
  -0.164133E+00  -0.114570E+00  -0.565627E+00
  -0.462923E-01   0.946993E-01  -0.590668E+00
  -0.462937E-01  -0.947529E-01  -0.590660E+00
  -0.253409E+00   0.531511E+00  -0.115237E+00
  -0.640770E-01   0.518452E+00  -0.295131E+00
  -0.160510E+00   0.566683E+00  -0.114485E+00
  -0.637503E-01   0.558952E+00  -0.208586E+00
  -0.398833E+00   0.448255E+00   0.151834E-04
  -0.425395E+00   0.405316E+00   0.121483E+00
  -0.496159E+00   0.313748E+00   0.124051E+00
  -0.523990E+00   0.292292E+00   0.166748E-04
   0.499070E-01   0.419057E+00  -0.419019E+00
   0.498983E-01   0.269012E+00  -0.528011E+00
   0.162664E+00   0.287776E+00  -0.500724E+00
   0.162069E+00   0.374110E+00  -0.440199E+00
  -0.543585E+00   0.221998E+00   0.123419E+00
  -0.582062E+00   0.102965E+00   0.102966E+00
  -0.591346E+00   0.101537E+00   0.161767E-04
   0.499073E-01   0.926587E-01  -0.585313E+00
   0.161849E+00   0.201775E+00  -0.541379E+00
   0.143097E+00   0.942645E-01  -0.575011E+00
  -0.438433E+00  -0.237465E+00  -0.333747E+00
  -0.372444E+00  -0.331578E+00  -0.333679E+00
  -0.277908E+00  -0.232610E+00  -0.478184E+00
  -0.279607E+00  -0.326550E+00  -0.418551E+00
  -0.232679E+00   0.553047E+00   0.130230E-04
  -0.253414E+00   0.531504E+00   0.115261E+00
  -0.349206E+00   0.472582E+00   0.121333E+00
   0.498760E-01   0.528022E+00  -0.269007E+00
   0.162020E+00   0.441270E+00  -0.372867E+00
   0.159214E+00   0.501917E+00  -0.287628E+00
  -0.543597E+00  -0.222011E+00  -0.123343E+00
  -0.496171E+00  -0.313758E+00  -0.123976E+00
  -0.437743E+00  -0.330379E+00  -0.243374E+00
  -0.184864E+00  -0.320375E+00  -0.472425E+00
  -0.673901E-01  -0.208889E+00  -0.558412E+00
  -0.677174E-01  -0.295513E+00  -0.517771E+00
  -0.591344E+00  -0.101547E+00   0.103420E-04
  -0.591346E+00  -0.546574E-05   0.101538E+00
   0.140689E+00  -0.222330E-04  -0.579886E+00
   0.499059E-01  -0.927038E-01  -0.585305E+00
  -0.452358E-01   0.592605E+00   0.878002E-05
  -0.462965E-01   0.590661E+00   0.947460E-01
  -0.160515E+00   0.566678E+00   0.114505E+00
  -0.462953E-01   0.590664E+00  -0.947245E-01
   0.499205E-01   0.585308E+00  -0.926817E-01
   0.158400E+00   0.542430E+00  -0.201692E+00
   0.143091E+00   0.575007E+00  -0.942972E-01
  -0.582062E+00  -0.102971E+00   0.102961E+00
  -0.543597E+00  -0.222007E+00   0.123352E+00
  -0.523990E+00  -0.292292E+00   0.675075E-05
   0.143096E+00  -0.943158E-01  -0.575003E+00
   0.498961E-01  -0.269033E+00  -0.528006E+00
   0.161781E+00  -0.201814E+00  -0.541385E+00
  -0.438205E+00   0.237408E+00   0.334087E+00
  -0.495155E+00   0.120039E+00   0.316879E+00
  -0.543013E+00   0.119541E+00   0.225492E+00
  -0.437722E+00   0.330363E+00   0.243434E+00
   0.270123E+00   0.299763E+00  -0.441869E+00
   0.250856E+00   0.106881E+00  -0.530014E+00
   0.330133E+00   0.106885E+00  -0.484291E+00
   0.349861E+00   0.213272E+00  -0.439458E+00
  -0.425400E+00  -0.405314E+00  -0.121470E+00
  -0.349211E+00  -0.472582E+00  -0.121318E+00
  -0.278122E+00  -0.419083E+00  -0.327136E+00
  -0.273396E+00  -0.479728E+00  -0.234768E+00
  -0.181264E+00  -0.474608E+00  -0.319203E+00
  -0.674419E-01  -0.386971E+00  -0.453547E+00
  -0.674442E-01  -0.454525E+00  -0.385821E+00
  -0.278121E+00   0.419086E+00   0.327133E+00
  -0.372218E+00   0.331545E+00   0.333964E+00
  -0.273396E+00   0.479725E+00   0.234774E+00
   0.266850E+00   0.444492E+00  -0.298702E+00
   0.349710E+00   0.299248E+00  -0.381070E+00
   0.348449E+00   0.382503E+00  -0.299956E+00
  -0.543035E+00  -0.119551E+00   0.225435E+00
  -0.523989E+00  -0.387548E-05   0.292293E+00
   0.310715E+00  -0.204884E-04  -0.514048E+00
   0.250777E+00  -0.106904E+00  -0.529988E+00
   0.140699E+00   0.579843E+00   0.760022E-05
   0.499193E-01   0.585305E+00   0.926986E-01
  -0.640832E-01   0.518437E+00   0.295155E+00
  -0.181268E+00   0.474607E+00   0.319202E+00
  -0.637564E-01   0.558944E+00   0.208606E+00
  -0.496172E+00  -0.313754E+00   0.123985E+00
  -0.425397E+00  -0.405314E+00   0.121482E+00
  -0.398835E+00  -0.448253E+00   0.909106E-05
   0.247572E+00   0.531465E+00  -0.106958E+00
   0.345327E+00   0.441255E+00  -0.215177E+00
   0.326851E+00   0.485795E+00  -0.106957E+00
   0.162596E+00  -0.287791E+00  -0.500738E+00
   0.499052E-01  -0.419041E+00  -0.419039E+00
   0.162055E+00  -0.374095E+00  -0.440217E+00
  -0.495183E+00  -0.120052E+00   0.316830E+00
  -0.438427E+00  -0.237464E+00   0.333755E+00
  -0.437741E+00  -0.330376E+00   0.243382E+00
   0.330055E+00  -0.106900E+00  -0.484265E+00
   0.270029E+00  -0.299744E+00  -0.441849E+00
   0.349540E+00  -0.213331E+00  -0.439667E+00
  -0.253412E+00  -0.531508E+00  -0.115244E+00
  -0.160513E+00  -0.566681E+00  -0.114491E+00
  -0.640795E-01  -0.518438E+00  -0.295153E+00
  -0.637522E-01  -0.558949E+00  -0.208595E+00
   0.143090E+00   0.575004E+00   0.943163E-01
   0.498736E-01   0.528008E+00   0.269030E+00
   0.158400E+00   0.542423E+00   0.201709E+00
   0.310695E+00   0.514016E+00   0.940990E-05
   0.247571E+00   0.531455E+00   0.106971E+00
  -0.426215E+00  -0.119371E+00   0.405082E+00
  -0.425983E+00   0.119300E+00   0.405346E+00
  -0.398813E+00  -0.984915E-05   0.448273E+00
   0.451202E+00  -0.103339E-04  -0.402217E+00
   0.409720E+00   0.106371E+00  -0.423492E+00
   0.409477E+00  -0.106447E+00  -0.423728E+00
  -0.277674E+00   0.232507E+00   0.478370E+00
  -0.349894E+00   0.119164E+00   0.472624E+00
  -0.279340E+00   0.326477E+00   0.418786E+00
   0.428187E+00   0.296012E+00  -0.297545E+00
   0.470931E+00   0.106376E+00  -0.357384E+00
   0.482626E+00   0.210225E+00  -0.296431E+00
  -0.349207E+00  -0.472581E+00   0.121334E+00
  -0.253414E+00  -0.531503E+00   0.115263E+00
  -0.232680E+00  -0.553046E+00   0.103614E-04
   0.162007E+00  -0.441249E+00  -0.372898E+00
   0.498744E-01  -0.528009E+00  -0.269027E+00
   0.159213E+00  -0.501906E+00  -0.287648E+00
  -0.674438E-01   0.386975E+00   0.453543E+00
  -0.184923E+00   0.320365E+00   0.472409E+00
  -0.674460E-01   0.454531E+00   0.385815E+00
   0.408450E+00   0.423806E+00  -0.108210E+00
   0.481365E+00   0.293480E+00  -0.215317E+00
   0.469666E+00   0.357702E+00  -0.108212E+00
  -0.372433E+00  -0.331581E+00   0.333689E+00
  -0.278111E+00  -0.419077E+00   0.327151E+00
  -0.273394E+00  -0.479723E+00   0.234780E+00
   0.349452E+00  -0.299291E+00  -0.381312E+00
   0.266836E+00  -0.444478E+00  -0.298714E+00
   0.348435E+00  -0.382485E+00  -0.299966E+00
   0.159215E+00   0.501904E+00   0.287650E+00
   0.499049E-01   0.419044E+00   0.419035E+00
   0.162009E+00   0.441253E+00   0.372892E+00
   0.451190E+00   0.402242E+00   0.880782E-05
   0.408443E+00   0.423801E+00   0.108223E+00
   0.326850E+00   0.485786E+00   0.106972E+00
  -0.350164E+00  -0.119258E+00   0.472401E+00
  -0.277892E+00  -0.232618E+00   0.478189E+00
  -0.279591E+00  -0.326545E+00   0.418566E+00
   0.470688E+00  -0.106441E+00  -0.357619E+00
   0.427946E+00  -0.296072E+00  -0.297784E+00
   0.482383E+00  -0.210288E+00  -0.296611E+00
  -0.256794E+00  -0.115204E+00   0.529891E+00
  -0.256854E+00   0.115174E+00   0.529869E+00
  -0.232668E+00  -0.204097E-04   0.553051E+00
   0.550671E+00  -0.374398E-05  -0.255645E+00
   0.524109E+00   0.103844E+00  -0.275156E+00
   0.524108E+00  -0.103851E+00  -0.275100E+00
  -0.160515E+00  -0.566677E+00   0.114508E+00
  -0.462966E-01  -0.590660E+00   0.947494E-01
  -0.462964E-01  -0.590663E+00  -0.947293E-01
  -0.452363E-01  -0.592605E+00   0.808668E-05
   0.158399E+00  -0.542427E+00  -0.201700E+00
   0.499199E-01  -0.585307E+00  -0.926857E-01
   0.143092E+00  -0.575006E+00  -0.943001E-01
   0.266836E+00   0.444466E+00   0.298710E+00
   0.345319E+00   0.441240E+00   0.215185E+00
  -0.674525E-01   0.208873E+00   0.558410E+00
  -0.164194E+00   0.114538E+00   0.565616E+00
  -0.677801E-01   0.295507E+00   0.517766E+00
   0.524106E+00   0.271916E+00  -0.107098E+00
   0.562366E+00   0.103845E+00  -0.194693E+00
   0.562385E+00   0.191432E+00  -0.107098E+00
   0.162057E+00   0.374098E+00   0.440214E+00
   0.498956E-01   0.269025E+00   0.528008E+00
   0.162655E+00   0.287782E+00   0.500725E+00
  -0.181258E+00  -0.474598E+00   0.319221E+00
[...]
POINT_DATA  300
SCALARS  vx_strength  double
LOOKUP_TABLE default
   0.114050E-01
   0.197968E-01
   0.247834E-01
   0.573167E-02
   0.276953E-01
   0.995078E-02
   0.115768E-01
   0.111508E-01
   0.143263E-01
   0.990735E-02
   0.170479E-01
   0.146327E-01
   0.447475E-01
   0.430125E-01
   0.142026E-01
   0.753936E-02
   0.161895E-01
   0.114930E-01
   0.655357E-02
   0.278851E-01
   0.420916E-01
   0.155952E-01
   0.144025E-01
   0.145413E-02
   0.165724E-01
   0.235087E-04
   0.157709E-01
   0.207325E-03
   0.272245E-01
   0.137544E-01
   0.744608E-02
   0.738069E-02
   0.110960E-01
   0.205590E-04
   0.400779E-03
   0.455276E-01
   0.793867E-02
   0.677413E-02
   0.140770E-01
   0.141125E-01
   0.451012E-01
   0.754697E-02
   0.133439E-03
   0.158591E-01
   0.171885E-01
   0.173017E-04
   0.400869E-01
   0.435546E-01
   0.131266E-01
   0.145953E-01
   0.115430E-01
   0.734707E-02
   0.682825E-04
   0.453532E-01
   0.641508E-02
   0.509049E-02
   0.981500E-02
   0.277306E-01
   0.566688E-02
   0.101973E-01
   0.311475E-03
   0.132194E-01
   0.284693E-01
   0.422332E-01
   0.140118E-01
   0.127509E-01
   0.115725E-01
   0.170053E-01
   0.100722E-01
   0.428684E-01
   0.733833E-02
   0.142027E-01
   0.569106E-04
   0.918709E-05
   0.995432E-04
   0.456544E-01
   0.230898E-03
   0.527026E-02
   0.458080E-01
   0.596965E-02
   0.463748E-01
   0.601371E-02
   0.382080E-02
   0.738326E-02
   0.115047E-01
   0.422089E-04
   0.563054E-02
   0.436055E-01
   0.636266E-02
   0.995170E-02
   0.162614E-01
   0.113807E-01
   0.100800E-01
   0.438659E-01
   0.466007E-01
   0.119803E-01
   0.427071E-02
   0.161713E-01
   0.279108E-01
   0.112635E-01
   0.651223E-02
   0.420680E-01
   0.155811E-01
   0.147563E-01
   0.111865E-01
   0.277351E-01
   0.620085E-02
   0.430916E-01
   0.834995E-02
   0.918200E-02
   0.113737E-01
   0.302489E-04
   0.470746E-04
   0.461872E-01
   0.872973E-04
   0.465184E-01
   0.139930E-01
   0.421829E-01
   0.721029E-02
   0.172244E-01
   0.158312E-01
   0.144348E-03
   0.467438E-01
   0.456015E-02
   0.113769E-01
   0.129729E-01
   0.401788E-01
   0.144212E-01
   0.161804E-01
   0.995657E-02
   0.100322E-01
   0.122488E-01
   0.438874E-01
   0.415977E-02
   0.140375E-01
   0.451142E-01
   0.141857E-01
   0.756341E-02
   0.421795E-02
   0.422855E-01
   0.619836E-02
   0.244851E-03
   0.462065E-01
   0.159790E-01
   0.160966E-01
   0.115269E-03
   0.142022E-03
   0.273449E-01
   0.269508E-01
   0.574717E-02
   0.268282E-01
   0.101817E-01
   0.285701E-01
   0.147109E-01
   0.842897E-02
   0.284585E-01
   0.132534E-01
   0.296900E-03
   0.134597E-01
   0.422529E-01
   0.125689E-01
   0.156368E-01
   0.427432E-01
   0.146076E-01
   0.287200E-01
   0.839532E-02
   0.144025E-01
   0.276082E-01
   0.113833E-01
   0.629332E-02
   0.792368E-02
   0.432958E-01
   0.893898E-02
   0.126963E-01
   0.401806E-01
   0.135866E-01
   0.141772E-03
   0.282153E-01
   0.120479E-01
   0.271959E-01
   0.591343E-02
   0.106219E-01
   0.149000E-01
   0.287359E-01
   0.841726E-02
   0.137982E-01
   0.140226E-01
   0.310722E-04
   0.260332E-04
   0.161378E-01
   0.161950E-01
   0.457843E-01
   0.529181E-02
   0.595418E-02
   0.219915E-03
   0.595342E-02
   0.463860E-01
   0.379788E-02
   0.431954E-01
   0.472367E-02
   0.756213E-02
   0.451555E-01
   0.143298E-01
   0.173679E-01
   0.105881E-01
   0.106487E-01
   0.143873E-01
   0.435751E-01
   0.129247E-01
   0.420286E-01
   0.141328E-01
   0.726056E-02
   0.362370E-04
   0.171623E-01
   0.147344E-01
   0.444111E-02
   0.467700E-01
   0.113375E-01
   0.465096E-01
   0.963272E-04
   0.649768E-02
   0.456241E-01
   0.739579E-02
   0.288127E-03
   0.103998E-04
   0.105984E-01
   0.719643E-02
   0.716173E-02
   0.427064E-01
   0.156963E-01
   0.150362E-01
   0.841670E-02
   0.287406E-01
   0.144317E-01
   0.440733E-01
   0.901135E-02
   0.784244E-02
   0.287724E-01
   0.838508E-02
   0.748673E-02
   0.144099E-01
   0.106674E-01
   0.173205E-01
   0.455011E-01
   0.624137E-02
   0.528731E-02
   0.715908E-04
   0.727251E-02
   0.107156E-01
   0.422829E-01
   0.616248E-02
   0.422166E-02
   0.462118E-01
   0.252012E-03
   0.456042E-01
   0.185066E-03
   0.710866E-04
   0.989562E-05
   0.465007E-01
   0.404660E-02
   0.120557E-01
   0.165284E-01
   0.824558E-02
   0.103155E-01
   0.402315E-01
   0.130904E-01
   0.125593E-01
   0.120557E-01
   0.282105E-01
   0.133996E-03
   0.273548E-01
   0.144426E-01
   0.598888E-02
   0.435867E-01
   0.624828E-02
   0.191691E-04
   0.107170E-01
   0.717903E-02
   0.128462E-01
   0.142875E-01
   0.147756E-01
   0.171690E-01
   0.433350E-01
   0.467414E-02
   0.949240E-04
   0.459917E-01
   0.387756E-04
   0.103612E-01
   0.145240E-02
   0.125820E-01
   0.250798E-01
   0.145199E-01
   0.183182E-01
   0.441590E-01
   0.749472E-02
   0.900513E-02
   0.289067E-01
   0.827967E-02
   0.399024E-02
   0.977640E-02

SCALARS  vx_core_radius  double
LOOKUP_TABLE default
   0.100462E+00
   0.100529E+00
   0.100451E+00
   0.100313E+00
   0.100476E+00
   0.100372E+00
   0.100626E+00
   0.100614E+00
   0.100632E+00
   0.100471E+00
   0.100648E+00
   0.100369E+00
   0.100244E+00
   0.100249E+00
   0.100166E+00
   0.100145E+00
   0.100538E+00
   0.100362E+00
   0.100319E+00
   0.100460E+00
   0.100245E+00
   0.100153E+00
   0.100153E+00
   0.100381E+00
   0.100627E+00
   0.100491E+00
   0.100526E+00
   0.100246E+00
   0.100452E+00
   0.100369E+00
   0.100738E+00
   0.100739E+00
   0.100613E+00
   0.100539E+00
   0.100107E+00
   0.100243E+00
   0.100144E+00
   0.100144E+00
   0.100372E+00
   0.100156E+00
   0.100241E+00
   0.100137E+00
   0.100384E+00
   0.100538E+00
   0.100650E+00
   0.100486E+00
   0.100021E+00
   0.100020E+00
   0.100128E+00
   0.100120E+00
   0.100627E+00
   0.100739E+00
   0.100541E+00
   0.100024E+00
   0.100113E+00
   0.100121E+00
   0.100459E+00
   0.100473E+00
   0.100313E+00
   0.100370E+00
   0.100246E+00
   0.100372E+00
   0.100460E+00
   0.100023E+00
   0.100121E+00
   0.100124E+00
   0.100627E+00
   0.100650E+00
   0.100470E+00
   0.100246E+00
   0.100144E+00
   0.100165E+00
   0.100540E+00
   0.100539E+00
   0.100092E+00
   0.100024E+00
   0.100108E+00
   0.100143E+00
   0.100241E+00
   0.100144E+00
   0.100023E+00
   0.100110E+00
   0.100121E+00
   0.100739E+00
   0.100627E+00
   0.100485E+00
   0.100121E+00
   0.100022E+00
   0.100114E+00
   0.100460E+00
   0.100628E+00
   0.100613E+00
   0.100470E+00
   0.100177E+00
   0.100182E+00
   0.100272E+00
   0.100228E+00
   0.100538E+00
   0.100460E+00
   0.100363E+00
   0.100319E+00
   0.100246E+00
   0.100153E+00
   0.100153E+00
   0.100362E+00
   0.100474E+00
   0.100319E+00
   0.100179E+00
   0.100269E+00
   0.100265E+00
   0.100613E+00
   0.100487E+00
   0.100186E+00
   0.100183E+00
   0.100094E+00
   0.100023E+00
   0.100156E+00
   0.100245E+00
   0.100137E+00
   0.100650E+00
   0.100538E+00
   0.100384E+00
   0.100182E+00
   0.100234E+00
   0.100276E+00
   0.100129E+00
   0.100022E+00
   0.100121E+00
   0.100628E+00
   0.100460E+00
   0.100470E+00
   0.100273E+00
   0.100179E+00
   0.100229E+00
   0.100372E+00
   0.100241E+00
   0.100156E+00
   0.100137E+00
   0.100121E+00
   0.100023E+00
   0.100110E+00
   0.100188E+00
   0.100182E+00
   0.100530E+00
   0.100529E+00
   0.100384E+00
   0.100277E+00
   0.100328E+00
   0.100329E+00
   0.100312E+00
   0.100452E+00
   0.100369E+00
   0.100337E+00
   0.100377E+00
   0.100327E+00
   0.100460E+00
   0.100372E+00
   0.100246E+00
   0.100121E+00
   0.100022E+00
   0.100123E+00
   0.100153E+00
   0.100247E+00
   0.100153E+00
   0.100334E+00
   0.100335E+00
   0.100384E+00
   0.100473E+00
   0.100363E+00
   0.100319E+00
   0.100270E+00
   0.100179E+00
   0.100264E+00
   0.100124E+00
   0.100022E+00
   0.100121E+00
   0.100277E+00
   0.100334E+00
   0.100276E+00
   0.100452E+00
   0.100313E+00
   0.100369E+00
   0.100377E+00
   0.100338E+00
   0.100328E+00
   0.100369E+00
   0.100369E+00
   0.100245E+00
   0.100344E+00
   0.100442E+00
   0.100443E+00
   0.100241E+00
   0.100144E+00
   0.100144E+00
   0.100109E+00
   0.100110E+00
   0.100023E+00
   0.100120E+00
   0.100179E+00
   0.100234E+00
   0.100145E+00
   0.100245E+00
   0.100165E+00
   0.100458E+00
   0.100431E+00
   0.100441E+00
   0.100121E+00
   0.100021E+00
   0.100129E+00
   0.100246E+00
   0.100157E+00
   0.100137E+00
   0.100342E+00
   0.100458E+00
   0.100384E+00
   0.100233E+00
   0.100182E+00
   0.100275E+00
   0.100023E+00
   0.100094E+00
   0.100144E+00
   0.100244E+00
   0.100144E+00
   0.100107E+00
   0.100379E+00
   0.100431E+00
   0.100517E+00
   0.100517E+00
   0.100245E+00
   0.100152E+00
   0.100153E+00
   0.100335E+00
   0.100333E+00
   0.100383E+00
   0.100178E+00
   0.100265E+00
   0.100270E+00
   0.100338E+00
   0.100335E+00
   0.100144E+00
   0.100164E+00
   0.100440E+00
   0.100457E+00
   0.100023E+00
   0.100113E+00
   0.100120E+00
   0.100380E+00
   0.100516E+00
   0.100441E+00
   0.100022E+00
   0.100109E+00
   0.100120E+00
   0.100182E+00
   0.100187E+00
   0.100023E+00
   0.100092E+00
   0.100380E+00
   0.100379E+00
   0.100182E+00
   0.100229E+00
   0.100272E+00
   0.100442E+00
   0.100327E+00
   0.100431E+00
   0.100023E+00
   0.100122E+00
   0.100123E+00
   0.100276E+00
   0.100333E+00
   0.100277E+00
   0.100327E+00
   0.100374E+00
   0.100120E+00
   0.100024E+00
   0.100114E+00
   0.100342E+00
   0.100440E+00
   0.100518E+00
   0.100130E+00
   0.100122E+00
   0.100384E+00
   0.100457E+00
   0.100179E+00
   0.100234E+00
   0.100187E+00
   0.100183E+00
   0.100347E+00
   0.100434E+00
   0.100274E+00
   0.100272E+00
   0.100327E+00
   0.100448E+00
   0.100378E+00
   0.100181E+00
   0.100271E+00
   0.100265E+00
   0.100342E+00
   0.100337E+00
   0.100228E+00
   0.100333E+00
